ITEM: TIMESTEP
25000
ITEM: NUMBER OF SURFS
1248
ITEM: BOX BOUNDS oo rr pp
0 0.3
0 0.3
-0.5 0.5
ITEM: SURFS id f_4[1] f_4[2] f_4[3] f_4[4] f_4[5] f_4[6] f_4[7] f_4[8] f_4[9] 
1 0.3392 0.3392 0 0.000663592 0.000663592 1.75209e-05 28.1334 5199.89 7099.67 
41 8.3146 8.3146 0 0.0357007 0.0357007 -1.26207e-05 357.007 33174.5 46212.3 
81 9.9582 9.9582 0 0.0414894 0.0414894 5.72479e-05 414.894 28295.7 39312.7 
121 10.5254 10.5254 0 0.0436101 0.0436101 0.000114637 436.101 26566.4 36946.2 
161 10.6102 10.6102 0 0.0437016 0.0437016 -0.000110099 437.016 25112.2 34909.4 
201 10.6506 10.6506 0 0.0439847 0.0439847 -4.40788e-05 439.847 25723.2 35367.4 
241 10.3912 10.3912 0 0.0432196 0.0432196 2.14534e-05 432.196 27991.6 38649.7 
281 9.5362 9.5362 0 0.0401003 0.0401003 -0.000198872 401.003 29044 40029.4 
321 2.1732 2.1732 0 0.00974933 0.00974933 -1.25778e-05 197.559 28159.8 39039.3 
361 0.7086 0.7086 0 0.0011088 0.0011088 7.55668e-06 30.7356 5360.44 7198.77 
401 0.797 0.797 0 0.000848504 0.000848504 -6.16319e-06 35.0599 5446.17 7392.01 
441 0.8816 0.8816 0 0.00079654 0.00079654 5.00452e-05 38.5504 5463.3 7326.66 
481 0.9018 0.9018 0 0.000692665 0.000692665 -3.06438e-05 39.7402 5218.85 7229.78 
521 0.925 0.925 0 0.000657007 0.000657007 -2.24907e-05 40.4979 5289.79 7204.57 
561 0.9404 0.9404 0 0.000653403 0.000653403 1.01314e-05 40.9787 4864.2 6683.66 
601 0.833 0.833 0 0.000703613 0.000703613 4.51208e-05 36.3903 4549.18 6102.77 
641 0.0794 0.0794 0 -0.000116267 -0.000116267 -6.42584e-06 5.95996 903.107 1143.12 
681 0.1104 0.1104 0 -0.0004482 -0.0004482 -1.45791e-05 4.482 468.259 658.025 
721 0.1678 0.1678 0 -0.000698218 -0.000698218 -1.0673e-05 6.98218 600.043 789.255 
761 0.1978 0.1978 0 -0.000838487 -0.000838487 -1.06644e-05 8.38487 725.541 970.533 
801 0.2186 0.2186 0 -0.000944119 -0.000944119 -1.62399e-05 9.44119 825.758 1176.2 
841 0.2022 0.2022 0 -0.000863907 -0.000863907 -3.53023e-06 8.63907 715.365 1047.79 
881 0.1624 0.1624 0 -0.000674514 -0.000674514 -9.19371e-06 6.74514 635.608 902.385 
921 0.0896 0.0896 0 -0.000350935 -0.000350935 -1.06723e-05 3.50935 129.12 294.67 
961 0.172 0.172 0 5.56303e-05 5.56303e-05 -2.59195e-06 14.4059 2557.2 3365.7 
1001 0.8832 0.8832 0 0.000672998 0.000672998 -1.84737e-05 38.7183 4525.93 5904.37 
1041 0.9336 0.9336 0 0.000681282 0.000681282 1.35557e-05 41.1673 4783.37 6724.46 
1081 0.9142 0.9142 0 0.000692575 0.000692575 5.34199e-05 40.2475 5099.04 6825.69 
1121 0.882 0.882 0 0.000730844 0.000730844 1.82154e-05 39.0411 5033.87 6942.57 
1161 0.8328 0.8328 0 0.000754046 0.000754046 2.13963e-05 37.1925 5472.35 7193.4 
1201 0.79 0.79 0 0.000878493 0.000878493 -2.67325e-05 34.9603 5693.26 7501.57 
1241 0.6718 0.6718 0 0.00110943 0.00110943 4.04526e-06 28.0018 5003.43 6809.06 
2 0.3574 0.3574 0 0.000767713 0.000767713 2.56419e-06 29.0532 5672.44 7679.88 
42 8.3242 8.3242 0 0.0357201 0.0357201 -0.000108344 357.201 32750.5 44676.6 
82 10.0168 10.0168 0 0.041859 0.041859 0.000110059 418.59 28379.1 39316 
122 10.5196 10.5196 0 0.0434029 0.0434029 -0.000116949 434.029 25697.5 36004.9 
162 10.731 10.731 0 0.0442156 0.0442156 8.6135e-05 442.156 26015 36093.6 
202 10.6602 10.6602 0 0.0441963 0.0441963 4.27797e-05 441.963 25953.2 35900.3 
242 10.2884 10.2884 0 0.0426729 0.0426729 7.04449e-05 426.729 27568.8 38150.9 
282 9.6052 9.6052 0 0.0404691 0.0404691 0.000177125 404.691 30578.8 41847.2 
322 2.1464 2.1464 0 0.00965173 0.00965173 -2.31277e-05 195.565 29596.3 40338.1 
362 0.6966 0.6966 0 0.00102661 0.00102661 -1.17699e-05 30.2579 5444.14 7163.41 
402 0.7972 0.7972 0 0.000856516 0.000856516 -6.82364e-06 35.5924 5609.16 7499.21 
442 0.857 0.857 0 0.000807612 0.000807612 -1.75225e-05 38.3143 5214.51 7054.27 
482 0.8962 0.8962 0 0.000702388 0.000702388 -3.25569e-05 39.5683 5138.88 6954.82 
522 0.9096 0.9096 0 0.000641523 0.000641523 2.0341e-05 39.7899 4922.74 6756 
562 0.9094 0.9094 0 0.000697131 0.000697131 -1.90448e-05 39.9985 4694.04 6445.41 
602 0.8396 0.8396 0 0.000693053 0.000693053 -3.01119e-05 36.5768 4425.13 6117.59 
642 0.063 0.063 0 -9.23569e-05 -9.23569e-05 1.07907e-06 4.59094 674.623 953.244 
682 0.1176 0.1176 0 -0.000469362 -0.000469362 1.10958e-05 4.69362 376.819 593.328 
722 0.1744 0.1744 0 -0.000732809 -0.000732809 2.12092e-06 7.32809 679.647 923.162 
762 0.2032 0.2032 0 -0.000871549 -0.000871549 2.24991e-06 8.71549 600.463 990.654 
802 0.2192 0.2192 0 -0.000941254 -0.000941254 1.40605e-05 9.41254 673.945 1060.65 
842 0.1908 0.1908 0 -0.000805255 -0.000805255 1.41009e-05 8.05255 732.387 1045.12 
882 0.1602 0.1602 0 -0.000672456 -0.000672456 -7.6006e-07 6.72456 501.871 683.521 
922 0.0896 0.0896 0 -0.000339541 -0.000339541 -2.98821e-06 3.39541 322.295 497.817 
962 0.192 0.192 0 6.34749e-05 6.34749e-05 1.47729e-07 16.7577 2919.34 3768.13 
1002 0.8778 0.8778 0 0.000667665 0.000667665 9.04287e-06 38.2669 4724.05 6488.95 
1042 0.9114 0.9114 0 0.000606992 0.000606992 -4.32677e-05 39.8232 4322.75 5918.71 
1082 0.8864 0.8864 0 0.000693395 0.000693395 4.20507e-06 38.9569 5226.76 7235.82 
1122 0.8878 0.8878 0 0.000727745 0.000727745 3.68421e-05 38.9308 5160.89 6764.92 
1162 0.8178 0.8178 0 0.00075064 0.00075064 -4.43114e-06 36.2966 4980.73 6860.07 
1202 0.7788 0.7788 0 0.000806312 0.000806312 2.21234e-05 34.8491 5322.93 6975.1 
1242 0.6708 0.6708 0 0.00112273 0.00112273 1.34661e-05 27.9621 5470.44 7295.87 
3 0.4018 0.4018 0 0.000935524 0.000935524 -7.50819e-06 33.5645 6751.92 9293.71 
43 8.5492 8.5492 0 0.0366438 0.0366438 -5.1334e-05 366.438 32839.2 45605.4 
83 10.0786 10.0786 0 0.042156 0.042156 -0.000165182 421.56 27866.1 38776.3 
123 10.5568 10.5568 0 0.0435907 0.0435907 6.64091e-05 435.907 26205.7 36346.3 
163 10.6868 10.6868 0 0.0440662 0.0440662 -9.40606e-05 440.662 24975.1 34355.5 
203 10.6432 10.6432 0 0.0439803 0.0439803 3.54901e-05 439.803 26384 36608.5 
243 10.3638 10.3638 0 0.0432515 0.0432515 -5.16812e-05 432.515 27581.2 38350.2 
283 9.4692 9.4692 0 0.0399802 0.0399802 -9.74101e-06 399.802 30391.4 41869.9 
323 1.9632 1.9632 0 0.00866097 0.00866097 2.64187e-05 177.023 27224.6 36766 
363 0.6854 0.6854 0 0.00101925 0.00101925 9.23965e-06 29.69 5275.68 7003.11 
403 0.7714 0.7714 0 0.000823534 0.000823534 -3.40072e-05 34.1552 5305.34 7230.95 
443 0.8496 0.8496 0 0.000804935 0.000804935 -1.18543e-05 38.0653 5580.27 7441.64 
483 0.916 0.916 0 0.0007481 0.0007481 -4.94183e-05 40.0108 5278.48 7148.23 
523 0.9278 0.9278 0 0.000671422 0.000671422 -5.12018e-05 40.7286 5043.78 6831.24 
563 0.893 0.893 0 0.000604477 0.000604477 4.88207e-05 39.072 4689.79 6583.47 
603 0.8534 0.8534 0 0.000761288 0.000761288 -2.22893e-05 37.0756 4609.99 6227.93 
643 0.0562 0.0562 0 -9.99538e-05 -9.99538e-05 -1.7226e-07 4.18881 587.675 729.312 
683 0.1114 0.1114 0 -0.000444102 -0.000444102 5.72514e-06 4.44102 333.739 637.298 
723 0.176 0.176 0 -0.0007361 -0.0007361 -1.28853e-05 7.361 681.466 1036.01 
763 0.2058 0.2058 0 -0.000873175 -0.000873175 -1.65868e-06 8.73175 715.116 1019.12 
803 0.2128 0.2128 0 -0.000929761 -0.000929761 -1.37913e-05 9.29761 805.429 1084.52 
843 0.2024 0.2024 0 -0.00087372 -0.00087372 8.2908e-06 8.7372 676.27 948.246 
883 0.1604 0.1604 0 -0.000695327 -0.000695327 -1.56128e-05 6.95327 552.168 834.021 
923 0.081 0.081 0 -0.000307095 -0.000307095 -2.99278e-06 3.07095 166.638 322.939 
963 0.2192 0.2192 0 0.000161202 0.000161202 1.1527e-05 19.2181 3424.39 4392.5 
1003 0.8706 0.8706 0 0.0006676 0.0006676 -7.61487e-06 38.9282 4796.42 6501.79 
1043 0.9154 0.9154 0 0.000677851 0.000677851 1.92536e-05 40.1059 4878.04 6807.06 
1083 0.9364 0.9364 0 0.000681103 0.000681103 8.05566e-06 41.2809 5338.64 7040.47 
1123 0.8984 0.8984 0 0.000675006 0.000675006 -2.60967e-05 39.7149 5169.34 7100.75 
1163 0.8714 0.8714 0 0.000741424 0.000741424 5.13e-06 38.6455 5379.56 7344.3 
1203 0.751 0.751 0 0.000898937 0.000898937 3.10829e-05 33.5258 5686.9 7466.85 
1243 0.682 0.682 0 0.00114762 0.00114762 -1.16945e-05 28.2743 5534.66 7340.84 
4 0.437 0.437 0 0.00109966 0.00109966 2.81665e-05 36.1899 7302.69 9970.96 
44 8.566 8.566 0 0.0366099 0.0366099 -0.000123262 366.099 31033.5 43419.2 
84 10.044 10.044 0 0.0418178 0.0418178 -2.90661e-06 418.178 27789 38162.7 
124 10.5908 10.5908 0 0.0437986 0.0437986 -4.13827e-06 437.986 26346.1 36038.7 
164 10.75 10.75 0 0.0443507 0.0443507 -5.50182e-05 443.507 25519 34621.1 
204 10.5904 10.5904 0 0.0438907 0.0438907 3.65731e-05 438.907 25834.3 36110.2 
244 10.3048 10.3048 0 0.0428202 0.0428202 -6.79513e-05 428.202 27362.3 37599.6 
284 9.4474 9.4474 0 0.0398342 0.0398342 -8.24369e-06 398.342 29311.7 40602.4 
324 1.8292 1.8292 0 0.00805426 0.00805426 2.31807e-05 165.986 25803.4 35403.6 
364 0.698 0.698 0 0.00096535 0.00096535 -2.40741e-05 30.3252 5338.71 7169.35 
404 0.7998 0.7998 0 0.000851222 0.000851222 3.47846e-05 35.8327 5380.16 7135.25 
444 0.8876 0.8876 0 0.000789702 0.000789702 2.07706e-05 39.1681 5636.22 7444.64 
484 0.9038 0.9038 0 0.000725083 0.000725083 -2.12425e-05 39.9923 5267.31 7298.99 
524 0.912 0.912 0 0.000675032 0.000675032 -4.32091e-05 39.763 4970.03 6744.05 
564 0.9314 0.9314 0 0.000641485 0.000641485 3.39231e-05 40.5969 4877.22 6578.45 
604 0.8328 0.8328 0 0.000661257 0.000661257 1.19253e-05 36.5301 4470.54 6141.06 
644 0.0472 0.0472 0 -8.9666e-05 -8.9666e-05 1.23533e-05 3.43439 564.438 835.373 
684 0.1218 0.1218 0 -0.000510763 -0.000510763 -6.2896e-06 5.10763 379.883 514.074 
724 0.1668 0.1668 0 -0.000694071 -0.000694071 -2.66901e-06 6.94071 592.506 930.817 
764 0.2064 0.2064 0 -0.00089443 -0.00089443 1.87089e-05 8.9443 738.402 975.109 
804 0.222 0.222 0 -0.000949462 -0.000949462 -2.00317e-05 9.49462 721.552 1045.12 
844 0.202 0.202 0 -0.000865111 -0.000865111 -1.7277e-05 8.65111 665.124 1027.58 
884 0.1566 0.1566 0 -0.000666385 -0.000666385 3.56627e-06 6.66385 561.308 855.941 
924 0.0784 0.0784 0 -0.000291864 -0.000291864 8.43832e-06 2.91864 249.699 404.591 
964 0.2256 0.2256 0 0.000176933 0.000176933 1.96229e-05 19.7294 3572.19 4816.12 
1004 0.8704 0.8704 0 0.000707101 0.000707101 -4.15676e-05 38.0707 4712.16 6352.1 
1044 0.9168 0.9168 0 0.000667264 0.000667264 -5.53161e-06 40.273 4876.59 6627.16 
1084 0.936 0.936 0 0.000715565 0.000715565 -1.40473e-05 41.0609 5172.43 7024.16 
1124 0.8812 0.8812 0 0.000715682 0.000715682 -1.49855e-05 39.1885 5459.12 7355.36 
1164 0.8586 0.8586 0 0.000787489 0.000787489 2.72516e-05 37.7758 5484.88 7450.32 
1204 0.7848 0.7848 0 0.000901235 0.000901235 2.39264e-05 34.7015 5587.9 7441.87 
1244 0.6802 0.6802 0 0.00113258 0.00113258 3.54255e-05 27.7993 5081.15 7008.1 
5 0.482 0.482 0 0.00132747 0.00132747 1.00981e-05 40.6005 7807.66 10758.1 
45 8.6682 8.6682 0 0.037097 0.037097 6.39573e-05 370.97 32691.5 45166.9 
85 10.1204 10.1204 0 0.0422096 0.0422096 4.52255e-07 422.096 28852.6 39763.5 
125 10.507 10.507 0 0.0434411 0.0434411 -6.49931e-05 434.411 25817.3 35364.6 
165 10.61 10.61 0 0.0437784 0.0437784 -5.21716e-05 437.784 25397.3 35182.1 
205 10.6528 10.6528 0 0.0440496 0.0440496 -6.14956e-05 440.496 26692.2 36495.1 
245 10.2752 10.2752 0 0.0426683 0.0426683 -1.42031e-05 426.683 27870.3 38629.6 
285 9.4424 9.4424 0 0.0398998 0.0398998 8.57156e-05 398.998 29829.4 41567.3 
325 1.781 1.781 0 0.00766507 0.00766507 -7.31338e-05 160.808 24470.3 33324.5 
365 0.7078 0.7078 0 0.00099842 0.00099842 -4.9765e-05 30.8412 5444.56 7194.1 
405 0.7978 0.7978 0 0.000858331 0.000858331 5.21624e-06 35.2262 5322.45 7170.44 
445 0.8724 0.8724 0 0.000823876 0.000823876 3.4209e-05 39.0277 5620.27 7561.12 
485 0.9092 0.9092 0 0.000742819 0.000742819 -5.12789e-06 40.2997 5288.86 7330.79 
525 0.916 0.916 0 0.000654659 0.000654659 1.98404e-05 40.0013 4672.02 6392.25 
565 0.9462 0.9462 0 0.00066194 0.00066194 8.05303e-06 40.9309 4864.61 6774.94 
605 0.821 0.821 0 0.000716721 0.000716721 -1.9714e-05 35.943 4699.62 5993.99 
645 0.0484 0.0484 0 -0.000105706 -0.000105706 -5.64574e-06 3.47689 331.298 583.595 
685 0.108 0.108 0 -0.000429805 -0.000429805 6.80426e-06 4.29805 352.018 569.832 
725 0.1724 0.1724 0 -0.0007245 -0.0007245 -2.04817e-05 7.245 564.68 848.219 
765 0.2158 0.2158 0 -0.000931728 -0.000931728 1.22629e-05 9.31728 695.388 1063.98 
805 0.2156 0.2156 0 -0.000927634 -0.000927634 5.98846e-06 9.27634 791.319 1130.67 
845 0.2046 0.2046 0 -0.000868182 -0.000868182 -3.7853e-07 8.68182 781.269 1102.13 
885 0.1426 0.1426 0 -0.000589775 -0.000589775 -8.18018e-06 5.89775 451.813 675.21 
925 0.0776 0.0776 0 -0.000305327 -0.000305327 2.31894e-05 3.05327 227.381 376.107 
965 0.2462 0.2462 0 0.000204542 0.000204542 8.54033e-06 21.6841 3283.89 4467.13 
1005 0.89 0.89 0 0.000712234 0.000712234 6.80957e-05 38.7489 4576.14 6397.27 
1045 0.9082 0.9082 0 0.000645748 0.000645748 -1.01693e-05 40.0154 4805.88 6700.06 
1085 0.9408 0.9408 0 0.000735393 0.000735393 -7.19566e-05 41.2734 5353.24 7342.49 
1125 0.9076 0.9076 0 0.000771293 0.000771293 -2.05942e-05 40.37 5251.54 7104.26 
1165 0.8564 0.8564 0 0.000811997 0.000811997 -1.53342e-05 37.6117 5251.5 7066.09 
1205 0.7646 0.7646 0 0.000894421 0.000894421 -3.22639e-06 34.2167 5543.78 7644.78 
1245 0.6766 0.6766 0 0.0011897 0.0011897 1.87177e-05 27.3857 5270.95 7059.4 
6 0.5214 0.5214 0 0.00147787 0.00147787 1.08555e-05 44.3505 8465.55 11097 
46 8.6996 8.6996 0 0.0371641 0.0371641 2.17943e-05 371.641 32725.9 45008.3 
86 10.1078 10.1078 0 0.0421026 0.0421026 -0.000133985 421.026 28502.6 39319.5 
126 10.592 10.592 0 0.0436422 0.0436422 3.4914e-05 436.422 25918.7 35908.5 
166 10.6902 10.6902 0 0.0440701 0.0440701 1.49501e-05 440.701 25485.9 35522.6 
206 10.579 10.579 0 0.0437318 0.0437318 -7.52532e-05 437.318 26865.1 36609.2 
246 10.3154 10.3154 0 0.0428598 0.0428598 -5.19344e-05 428.598 27067.1 37439.1 
286 9.4258 9.4258 0 0.039945 0.039945 9.43903e-05 399.45 30875.7 42636.8 
326 1.6352 1.6352 0 0.006964 0.006964 -2.85256e-05 147.048 23689.6 31701 
366 0.7268 0.7268 0 0.00105806 0.00105806 4.13e-06 31.6047 5616.23 7322.71 
406 0.7972 0.7972 0 0.000825099 0.000825099 5.29584e-05 35.6885 5704.86 7536.73 
446 0.8622 0.8622 0 0.000754441 0.000754441 9.5264e-06 38.2797 5258.5 7180.09 
486 0.892 0.892 0 0.000670205 0.000670205 -2.27637e-05 39.1393 5018.73 6793.94 
526 0.9222 0.9222 0 0.000680579 0.000680579 6.58317e-06 40.6987 4820.64 6739.44 
566 0.93 0.93 0 0.000690291 0.000690291 9.63225e-06 40.2958 4781.8 6567.03 
606 0.8498 0.8498 0 0.000776379 0.000776379 -2.75081e-06 37.0937 4584.87 6385.25 
646 0.038 0.038 0 -8.87624e-05 -8.87624e-05 2.41857e-06 2.7658 237.153 415.275 
686 0.1128 0.1128 0 -0.000477899 -0.000477899 8.99092e-06 4.77899 479.242 649.855 
726 0.1674 0.1674 0 -0.000700747 -0.000700747 1.66683e-05 7.00747 531.508 767.922 
766 0.2088 0.2088 0 -0.000875067 -0.000875067 3.51085e-06 8.75067 717.079 1041.76 
806 0.22 0.22 0 -0.000961675 -0.000961675 -4.24278e-07 9.61675 831.589 1222.26 
846 0.1996 0.1996 0 -0.000828663 -0.000828663 -3.8866e-06 8.28663 644.283 934.905 
886 0.1572 0.1572 0 -0.000669494 -0.000669494 -6.88935e-06 6.69494 487.125 767.781 
926 0.0904 0.0904 0 -0.000354985 -0.000354985 1.42283e-05 3.54985 280.076 430.189 
966 0.267 0.267 0 0.000266579 0.000266579 1.6499e-05 23.4086 3757.58 4861.77 
1006 0.876 0.876 0 0.000671363 0.000671363 4.22559e-05 38.4139 4579.44 6121.44 
1046 0.9084 0.9084 0 0.000676157 0.000676157 -3.52203e-06 39.8049 5006.66 6751.43 
1086 0.931 0.931 0 0.000706153 0.000706153 -1.52969e-05 40.9614 5153.56 7280.64 
1126 0.8916 0.8916 0 0.000738944 0.000738944 -1.05972e-05 39.11 5084.77 6977.88 
1166 0.8418 0.8418 0 0.000764972 0.000764972 3.08715e-05 37.2328 5327.76 7149.63 
1206 0.7678 0.7678 0 0.000880671 0.000880671 -6.46704e-06 33.9114 5500.66 7223.4 
1246 0.6706 0.6706 0 0.00117385 0.00117385 -1.76354e-06 27.3545 4963.2 6897.16 
7 0.565 0.565 0 0.00169778 0.00169778 -2.02361e-05 47.4051 8936.13 12215.6 
47 8.7812 8.7812 0 0.0376117 0.0376117 -2.07219e-05 376.117 32357.7 44408.7 
87 10.0398 10.0398 0 0.0420221 0.0420221 8.96613e-05 420.221 28063.2 38713.5 
127 10.6398 10.6398 0 0.0440837 0.0440837 -9.2532e-05 440.837 26009 36027.9 
167 10.687 10.687 0 0.0439365 0.0439365 5.79179e-05 439.365 25255.9 35033 
207 10.641 10.641 0 0.0439987 0.0439987 2.86556e-05 439.987 27137.5 37038.9 
247 10.3168 10.3168 0 0.0427195 0.0427195 0.000147357 427.195 27101.7 37874.8 
287 9.3688 9.3688 0 0.0396453 0.0396453 4.0709e-05 396.453 30916.8 42171.9 
327 1.4908 1.4908 0 0.00624813 0.00624813 -5.17954e-05 134.167 21027.3 29368.1 
367 0.7024 0.7024 0 0.000974117 0.000974117 -1.91998e-05 30.5404 4982.3 6679.08 
407 0.8132 0.8132 0 0.000901935 0.000901935 -4.43692e-05 36.3471 5859.96 7789.51 
447 0.8444 0.8444 0 0.000724488 0.000724488 -1.29136e-05 37.2795 4952.55 6604.42 
487 0.9218 0.9218 0 0.000764587 0.000764587 -1.91491e-05 40.1697 5359.96 7083.81 
527 0.9452 0.9452 0 0.000697359 0.000697359 -2.22594e-05 41.3938 5100.98 6992.57 
567 0.9224 0.9224 0 0.000654011 0.000654011 3.30017e-06 39.9885 4508.99 6325.42 
607 0.8176 0.8176 0 0.000718025 0.000718025 -9.31026e-06 35.4206 4534.98 6105.53 
647 0.044 0.044 0 -0.000114375 -0.000114375 6.89284e-06 3.25958 383.109 560.565 
687 0.113 0.113 0 -0.000473488 -0.000473488 -1.99589e-05 4.73488 311.948 467.223 
727 0.1774 0.1774 0 -0.000746602 -0.000746602 2.00071e-05 7.46602 567.591 865.519 
767 0.2068 0.2068 0 -0.000881727 -0.000881727 1.18405e-05 8.81727 696.371 1064.73 
807 0.223 0.223 0 -0.000977132 -0.000977132 3.36907e-05 9.77132 898.174 1284.69 
847 0.2022 0.2022 0 -0.000856371 -0.000856371 -9.51872e-06 8.56371 754.31 1053.04 
887 0.1432 0.1432 0 -0.000591765 -0.000591765 3.74375e-06 5.91765 516.671 708.38 
927 0.0736 0.0736 0 -0.000276581 -0.000276581 -1.08754e-05 2.76581 229.575 382.78 
967 0.2944 0.2944 0 0.000388833 0.000388833 1.44514e-05 26.2043 4435.56 5770.52 
1007 0.8722 0.8722 0 0.000686532 0.000686532 2.95669e-05 38.3708 4208.14 5745.19 
1047 0.9276 0.9276 0 0.000666595 0.000666595 -2.79911e-05 40.8758 4776.77 6494.99 
1087 0.8962 0.8962 0 0.00068993 0.00068993 2.29349e-05 39.3415 5058.32 6827.48 
1127 0.8994 0.8994 0 0.000755957 0.000755957 -3.50563e-05 39.3501 5213.12 7099.92 
1167 0.8586 0.8586 0 0.000805637 0.000805637 -9.48225e-07 37.9799 5487.4 7603.89 
1207 0.747 0.747 0 0.000911053 0.000911053 7.59221e-06 33.1687 5578.35 7527.79 
1247 0.664 0.664 0 0.00120939 0.00120939 -2.5228e-05 26.831 5052.59 6932.01 
8 0.6748 0.6748 0 0.00214806 0.00214806 2.88254e-05 57.8651 10788.1 14422.3 
48 8.8904 8.8904 0 0.0380716 0.0380716 -3.88829e-06 380.716 31343.2 43471.5 
88 10.1822 10.1822 0 0.042491 0.042491 -0.000122785 424.91 27928.1 39080.5 
128 10.5382 10.5382 0 0.0434522 0.0434522 3.39926e-05 434.522 25951.2 36039.5 
168 10.6574 10.6574 0 0.043951 0.043951 6.90733e-05 439.51 25360 35486 
208 10.638 10.638 0 0.043892 0.043892 -7.25701e-05 438.92 26881.1 37038.9 
248 10.2848 10.2848 0 0.0428853 0.0428853 -2.39469e-05 428.853 27978.9 38389.3 
288 9.3672 9.3672 0 0.0397702 0.0397702 -3.29624e-05 397.702 30682.6 42701.7 
328 1.3424 1.3424 0 0.00557387 0.00557387 3.1419e-06 120.25 20589.3 27280.2 
368 0.7264 0.7264 0 0.000980276 0.000980276 4.83544e-05 31.4524 5170.35 6856.39 
408 0.8258 0.8258 0 0.000900491 0.000900491 -1.80293e-05 36.862 6000.3 7963.82 
448 0.889 0.889 0 0.000763395 0.000763395 -1.80815e-05 39.4413 5320.96 7138.94 
488 0.9186 0.9186 0 0.000680157 0.000680157 3.63285e-05 40.306 5477.69 7311.14 
528 0.9134 0.9134 0 0.00069829 0.00069829 3.58244e-05 40.081 5044.88 6926.28 
568 0.9116 0.9116 0 0.000618438 0.000618438 -3.21493e-05 40.3293 4897.58 6634.57 
608 0.7838 0.7838 0 0.000744188 0.000744188 1.78864e-05 34.3243 4650.93 6247.47 
648 0.0328 0.0328 0 -8.25274e-05 -8.25274e-05 -8.25223e-06 2.24182 273.24 473.574 
688 0.1236 0.1236 0 -0.000505294 -0.000505294 1.2562e-05 5.05294 335.603 601.703 
728 0.1892 0.1892 0 -0.000798346 -0.000798346 -9.40622e-06 7.98346 652.815 990.61 
768 0.2068 0.2068 0 -0.000879928 -0.000879928 8.7873e-06 8.79928 796.596 1197.2 
808 0.2042 0.2042 0 -0.000890061 -0.000890061 -9.47774e-06 8.90061 735.811 1064.67 
848 0.1878 0.1878 0 -0.00079068 -0.00079068 1.54222e-05 7.9068 558.757 731.941 
888 0.1478 0.1478 0 -0.000602469 -0.000602469 1.64543e-05 6.02469 457.418 695.378 
928 0.0746 0.0746 0 -0.000271764 -0.000271764 6.65301e-06 2.71764 184.437 329.981 
968 0.2972 0.2972 0 0.000405528 0.000405528 1.18373e-05 27.1909 4480.91 5858.48 
1008 0.873 0.873 0 0.000630374 0.000630374 4.99076e-05 37.8816 4476.29 5979.45 
1048 0.9306 0.9306 0 0.000700096 0.000700096 1.27048e-05 40.972 5115.19 6911.79 
1088 0.9306 0.9306 0 0.000714184 0.000714184 1.84453e-06 40.8826 5260.72 7038.95 
1128 0.885 0.885 0 0.000794249 0.000794249 -4.43203e-06 38.9896 5509.47 7477.69 
1168 0.8486 0.8486 0 0.000836764 0.000836764 -1.08096e-05 37.2547 5106.69 7059.45 
1208 0.7544 0.7544 0 0.000902166 0.000902166 -6.80231e-06 33.3905 5523.13 7091.45 
1248 0.644 0.644 0 0.00117965 0.00117965 2.22766e-05 26.0402 4882.04 6827.83 
9 0.7252 0.7252 0 0.00242445 0.00242445 3.68873e-05 62.5718 12236.2 16688.8 
49 8.92 8.92 0 0.0380069 0.0380069 8.27365e-05 380.069 31239.8 43078.3 
89 10.0996 10.0996 0 0.0420413 0.0420413 0.000127069 420.413 27596.4 38978 
129 10.5952 10.5952 0 0.0437514 0.0437514 -1.21085e-05 437.514 26231.4 35716.6 
169 10.6414 10.6414 0 0.0439416 0.0439416 0.000171269 439.416 25419.3 34695.5 
209 10.499 10.499 0 0.0434459 0.0434459 -0.000123938 434.459 25359.7 35610.3 
249 10.2436 10.2436 0 0.0428118 0.0428118 -6.80098e-05 428.118 27478.8 38018.2 
289 9.2682 9.2682 0 0.0392954 0.0392954 -1.06863e-05 392.954 30621.6 42314.5 
329 1.2838 1.2838 0 0.00528909 0.00528909 1.9991e-05 115.731 20327.3 27761.8 
369 0.7294 0.7294 0 0.00108134 0.00108134 -2.6901e-05 31.8386 5904.76 7780.23 
409 0.8146 0.8146 0 0.000840917 0.000840917 2.54152e-05 36.2071 5397.27 7340.44 
449 0.8644 0.8644 0 0.000748695 0.000748695 -3.29952e-05 38.4314 5272.96 7286.89 
489 0.8892 0.8892 0 0.000661525 0.000661525 -2.69276e-05 39.5242 5139.92 7043.55 
529 0.9368 0.9368 0 0.000652305 0.000652305 3.0494e-05 40.9578 4678.32 6549.91 
569 0.9364 0.9364 0 0.000744507 0.000744507 3.62387e-06 40.4849 4869.93 6674.25 
609 0.7822 0.7822 0 0.000731946 0.000731946 -6.629e-06 34.7463 4295.46 5892.49 
649 0.028 0.028 0 -7.81446e-05 -7.81446e-05 -4.93516e-06 1.97101 181.484 326.461 
689 0.127 0.127 0 -0.000518992 -0.000518992 -4.46187e-06 5.18992 469.682 645.586 
729 0.1802 0.1802 0 -0.00076972 -0.00076972 -1.4971e-05 7.6972 580.907 840.779 
769 0.2158 0.2158 0 -0.000949664 -0.000949664 -1.73205e-05 9.49664 759.196 1044.03 
809 0.2162 0.2162 0 -0.000912857 -0.000912857 6.82711e-06 9.12857 668.771 1060.29 
849 0.1922 0.1922 0 -0.000833854 -0.000833854 1.71442e-05 8.33854 626.613 879.833 
889 0.1484 0.1484 0 -0.000623721 -0.000623721 -1.40874e-05 6.23721 492.109 786.625 
929 0.0758 0.0758 0 -0.000281541 -0.000281541 4.72344e-07 2.81541 185.707 331.814 
969 0.6294 0.6294 0 0.0008548 0.0008548 4.35096e-05 27.9681 4195.87 5425.44 
1009 0.9102 0.9102 0 0.000689076 0.000689076 -2.62849e-05 39.6645 4999.95 6819.06 
1049 0.9072 0.9072 0 0.000709255 0.000709255 -2.52853e-05 39.6321 4932.74 6683.24 
1089 0.9302 0.9302 0 0.000694836 0.000694836 4.65769e-05 40.8609 5155.73 7262.61 
1129 0.8824 0.8824 0 0.000726356 0.000726356 -1.15418e-05 39.2711 5411.95 7293.7 
1169 0.8454 0.8454 0 0.000760005 0.000760005 7.43622e-06 37.8724 5453.32 7299.61 
1209 0.758 0.758 0 0.000933959 0.000933959 -6.75981e-06 33.2164 5642.32 7354.58 
10 0.789 0.789 0 0.00274832 0.00274832 1.24608e-05 69.4607 13521.1 18370.5 
50 9.008 9.008 0 0.0383134 0.0383134 4.21079e-05 383.134 31379.8 42941.8 
90 10.2772 10.2772 0 0.0428146 0.0428146 3.0214e-05 428.146 27988.4 38749.3 
130 10.5118 10.5118 0 0.0434813 0.0434813 7.97407e-07 434.813 25570.4 35864.4 
170 10.6648 10.6648 0 0.04407 0.04407 -6.79176e-05 440.7 25347.5 35318.3 
210 10.64 10.64 0 0.0438995 0.0438995 -3.96436e-05 438.995 25962.1 36078.3 
250 10.2158 10.2158 0 0.0424359 0.0424359 9.76934e-05 424.359 28526.5 39106.7 
290 9.244 9.244 0 0.0392698 0.0392698 -7.90393e-05 392.698 31042.2 42333.6 
330 1.2394 1.2394 0 0.00489746 0.00489746 -4.95943e-05 110.144 18934.3 25512.5 
370 0.7056 0.7056 0 0.000931892 0.000931892 -5.34897e-05 30.6034 5250.05 6918.15 
410 0.8268 0.8268 0 0.000837039 0.000837039 3.38789e-06 36.6485 5724.41 7629.16 
450 0.8752 0.8752 0 0.000736249 0.000736249 -2.41189e-05 39.0194 5488.1 7477.14 
490 0.9076 0.9076 0 0.000724514 0.000724514 1.35054e-05 40.1618 5241.68 7165.75 
530 0.896 0.896 0 0.000630519 0.000630519 -3.10407e-05 39.5561 4589.07 6528.27 
570 0.928 0.928 0 0.000657464 0.000657464 1.95047e-05 40.6385 5119.25 6655.16 
610 0.7864 0.7864 0 0.000682266 0.000682266 1.54686e-05 34.9104 4552.29 6164.98 
650 0.0282 0.0282 0 -8.49297e-05 -8.49297e-05 -9.49842e-06 2.03873 171.427 291.649 
690 0.126 0.126 0 -0.000508408 -0.000508408 -6.84163e-06 5.08408 403.951 584.002 
730 0.176 0.176 0 -0.000742176 -0.000742176 -1.36897e-06 7.42176 575.726 924.88 
770 0.2262 0.2262 0 -0.000975961 -0.000975961 -2.30124e-05 9.75961 764.668 1086.13 
810 0.2248 0.2248 0 -0.000964375 -0.000964375 -1.67402e-05 9.64375 775.415 1134.81 
850 0.1748 0.1748 0 -0.000739274 -0.000739274 -3.83382e-06 7.39274 661.323 937.245 
890 0.1436 0.1436 0 -0.000596066 -0.000596066 -1.63625e-05 5.96066 413.072 576.258 
930 0.067 0.067 0 -0.000254428 -0.000254428 -2.73926e-06 2.54428 203.081 283.611 
970 0.6764 0.6764 0 0.000906846 0.000906846 -1.90534e-05 30.298 4742.1 6094.42 
1010 0.8792 0.8792 0 0.000695283 0.000695283 -1.7293e-05 38.4938 4960.32 6807.16 
1050 0.9298 0.9298 0 0.000662264 0.000662264 8.67656e-06 40.6037 4562.93 6219.41 
1090 0.918 0.918 0 0.000680254 0.000680254 -6.84475e-06 40.5808 5397.56 7374.77 
1130 0.8892 0.8892 0 0.000691816 0.000691816 2.08401e-05 39.5771 5504.67 7494.29 
1170 0.8282 0.8282 0 0.000851236 0.000851236 1.63459e-05 37.0528 5528.69 7293.71 
1210 0.7604 0.7604 0 0.000943036 0.000943036 7.82229e-06 33.332 5528.51 7363.12 
11 0.8642 0.8642 0 0.00314025 0.00314025 2.8827e-05 76.7219 14271.8 19418.5 
51 8.959 8.959 0 0.0381195 0.0381195 -8.57163e-05 381.195 30774.6 43220.9 
91 10.1102 10.1102 0 0.0421997 0.0421997 -5.28561e-07 421.997 27612.2 38444.3 
131 10.5756 10.5756 0 0.0435854 0.0435854 5.45245e-05 435.854 25502 35564 
171 10.6546 10.6546 0 0.0439654 0.0439654 3.4257e-05 439.654 25899.3 35809.9 
211 10.5012 10.5012 0 0.0434808 0.0434808 0.000102297 434.808 27088.8 37137.2 
251 10.1216 10.1216 0 0.0421364 0.0421364 -6.71685e-05 421.364 27607.7 38490.3 
291 9.1818 9.1818 0 0.0389895 0.0389895 -6.15325e-05 389.895 30650.2 42760.2 
331 1.1056 1.1056 0 0.00428928 0.00428928 9.33387e-06 98.6205 17178.3 23397.5 
371 0.7586 0.7586 0 0.000994874 0.000994874 2.49819e-05 32.9974 5595.24 7397.55 
411 0.8 0.8 0 0.000813637 0.000813637 2.6929e-05 35.6683 5236.47 7036.13 
451 0.8656 0.8656 0 0.000736299 0.000736299 8.96706e-06 38.8189 5647.01 7593.85 
491 0.9234 0.9234 0 0.000714951 0.000714951 -1.50014e-05 40.7435 5367.68 7279.87 
531 0.9142 0.9142 0 0.000641359 0.000641359 2.97838e-05 40.652 4925.84 6718.72 
571 0.8836 0.8836 0 0.000634946 0.000634946 -2.5708e-05 38.7097 4608.13 6276.02 
611 0.8018 0.8018 0 0.000780084 0.000780084 6.2946e-06 34.642 4390.03 5964.59 
651 0.0286 0.0286 0 -8.80742e-05 -8.80742e-05 8.9218e-06 2.02146 134.882 282.716 
691 0.1226 0.1226 0 -0.000511383 -0.000511383 -4.48527e-06 5.11383 413.288 628.821 
731 0.185 0.185 0 -0.000778892 -0.000778892 -8.44843e-07 7.78892 532.198 712.066 
771 0.2158 0.2158 0 -0.000934402 -0.000934402 -2.35909e-06 9.34402 851.452 1228 
811 0.209 0.209 0 -0.000906259 -0.000906259 -1.90773e-05 9.06259 563.077 781.988 
851 0.1868 0.1868 0 -0.000800366 -0.000800366 1.15958e-05 8.00366 572.722 832.212 
891 0.1542 0.1542 0 -0.000641963 -0.000641963 -9.16877e-06 6.41963 482.22 734.038 
931 0.0714 0.0714 0 -0.000276321 -0.000276321 4.78401e-07 2.76321 162.485 273.504 
971 0.6768 0.6768 0 0.000865086 0.000865086 -1.275e-05 30.3262 4884.17 6334.36 
1011 0.8974 0.8974 0 0.000701014 0.000701014 7.16382e-06 39.6381 4880.55 6539.08 
1051 0.9192 0.9192 0 0.000584054 0.000584054 4.39195e-05 39.8998 4879.27 6677.71 
1091 0.9254 0.9254 0 0.000708606 0.000708606 2.64052e-05 41.0388 5173.35 6992.28 
1131 0.8806 0.8806 0 0.000731299 0.000731299 -4.50337e-05 38.9151 5266.23 7154.79 
1171 0.825 0.825 0 0.000802088 0.000802088 -4.04795e-06 36.6604 5377.65 7193.23 
1211 0.7792 0.7792 0 0.000977706 0.000977706 3.55195e-05 34.3405 5796.56 7566.41 
12 0.9078 0.9078 0 0.00334462 0.00334462 -2.95782e-06 80.3415 14652.5 20106.9 
52 9.0562 9.0562 0 0.0385449 0.0385449 -8.57835e-05 385.449 30752.2 42577.4 
92 10.1424 10.1424 0 0.0424269 0.0424269 -6.71088e-05 424.269 27518.4 38508.3 
132 10.5742 10.5742 0 0.043632 0.043632 0.000269537 436.32 25669.2 35966.6 
172 10.7192 10.7192 0 0.0440902 0.0440902 -7.35476e-05 440.902 25222.9 34973.4 
212 10.6088 10.6088 0 0.0439899 0.0439899 0.000100386 439.899 26416.4 36658.9 
252 10.1828 10.1828 0 0.0424276 0.0424276 -5.58258e-05 424.276 27838.9 38288.9 
292 9.1264 9.1264 0 0.0387106 0.0387106 5.46884e-05 387.106 30542.4 42417.5 
332 0.9962 0.9962 0 0.00374402 0.00374402 -3.4715e-06 87.3849 15573.8 21071.2 
372 0.7428 0.7428 0 0.000973934 0.000973934 -7.8166e-06 32.4223 5363.71 7125.87 
412 0.792 0.792 0 0.000830191 0.000830191 3.40446e-05 35.8201 5464.9 7391.19 
452 0.851 0.851 0 0.000801064 0.000801064 -6.10744e-06 37.7883 5477.64 7259.78 
492 0.8816 0.8816 0 0.000706253 0.000706253 2.55632e-06 38.533 4958.42 6687.32 
532 0.9182 0.9182 0 0.000685885 0.000685885 -9.1806e-06 40.5373 5216.7 7046.15 
572 0.895 0.895 0 0.000663255 0.000663255 -4.25937e-05 39.2021 4599.45 6408.15 
612 0.7622 0.7622 0 0.000761359 0.000761359 -2.66615e-05 33.1947 4162.85 5701.14 
652 0.0258 0.0258 0 -8.53976e-05 -8.53976e-05 -6.14563e-06 1.83385 205.278 362.005 
692 0.126 0.126 0 -0.000523059 -0.000523059 -1.06966e-05 5.23059 466.489 648.508 
732 0.1808 0.1808 0 -0.000756599 -0.000756599 -7.3339e-06 7.56599 638.766 872.724 
772 0.2116 0.2116 0 -0.000927023 -0.000927023 1.23482e-05 9.27023 710.553 1072.71 
812 0.2036 0.2036 0 -0.000883817 -0.000883817 1.99342e-05 8.83817 672.785 955.579 
852 0.1856 0.1856 0 -0.00078729 -0.00078729 1.37702e-06 7.8729 599.355 876.016 