ITEM: TIMESTEP
25000
ITEM: NUMBER OF SURFS
1224
ITEM: BOX BOUNDS oo rr pp
0 0.3
0 0.3
-0.5 0.5
ITEM: SURFS id f_4[1] f_4[2] f_4[3] f_4[4] f_4[5] f_4[6] f_4[7] f_4[8] f_4[9] 
1 0.299 0.299 0 0.000645407 0.000645407 -8.73184e-06 23.616 5028.62 7068.56 
41 9.2394 9.2394 0 0.0391892 0.0391892 -8.49194e-05 391.892 30648.3 42632.7 
81 10.1408 10.1408 0 0.0423564 0.0423564 2.57053e-05 423.564 27760.4 38126.7 
121 10.643 10.643 0 0.0440551 0.0440551 -4.44967e-05 440.551 27614.2 38021.5 
161 10.7228 10.7228 0 0.0441223 0.0441223 0.000121339 441.223 25493 34968.5 
201 10.549 10.549 0 0.0436897 0.0436897 4.84846e-05 436.897 25970.3 35862.4 
241 10.2928 10.2928 0 0.0427169 0.0427169 8.18361e-05 427.169 26610.1 37553.8 
281 9.376 9.376 0 0.0394672 0.0394672 3.97444e-05 394.672 30427.2 41838.3 
321 0.3486 0.3486 0 0.000820446 0.000820446 8.39078e-06 28.2333 4867.69 7122.91 
361 0.7204 0.7204 0 0.00090768 0.00090768 3.85327e-05 32.2116 5585.46 7276.91 
401 0.8274 0.8274 0 0.00081664 0.00081664 -7.10384e-05 36.9951 5559.01 7513.79 
441 0.871 0.871 0 0.000758235 0.000758235 1.57359e-05 38.3047 5389.07 7306.98 
481 0.9006 0.9006 0 0.000609895 0.000609895 2.31738e-05 39.4095 4871.33 6586.32 
521 0.9204 0.9204 0 0.000691691 0.000691691 -3.03705e-05 40.8358 4699.69 6584.59 
561 0.8678 0.8678 0 0.000614895 0.000614895 1.98907e-05 38.3534 4338.23 6148.14 
601 0.7572 0.7572 0 0.00075539 0.00075539 4.23761e-05 33.8993 4400.85 5899.5 
641 0.081 0.081 0 -0.000311095 -0.000311095 2.15143e-05 3.11095 200.712 377.217 
681 0.1582 0.1582 0 -0.00066459 -0.00066459 1.35935e-05 6.6459 585.765 794.239 
721 0.1902 0.1902 0 -0.000817938 -0.000817938 -6.47294e-06 8.17938 639.435 1024.48 
761 0.2186 0.2186 0 -0.000940626 -0.000940626 5.27139e-06 9.40626 765.193 1026.18 
801 0.2072 0.2072 0 -0.000893376 -0.000893376 -2.79592e-05 8.93376 738.817 1078.96 
841 0.1842 0.1842 0 -0.000772153 -0.000772153 -2.43328e-05 7.72153 513.024 790.336 
881 0.119 0.119 0 -0.00048085 -0.00048085 7.89303e-06 4.8085 367.998 525.358 
921 0.032 0.032 0 -0.000102419 -0.000102419 -4.42751e-06 2.30265 182.716 336.361 
961 0.8436 0.8436 0 0.000709191 0.000709191 3.82588e-05 36.8027 4487.93 6176.9 
1001 0.9502 0.9502 0 0.000656376 0.000656376 5.12088e-07 41.5677 4749.51 6636.71 
1041 0.9102 0.9102 0 0.000579676 0.000579676 3.42676e-05 40.0265 4903.16 6672.62 
1081 0.9046 0.9046 0 0.00070301 0.00070301 1.5722e-05 39.7038 5174.42 7031.24 
1121 0.841 0.841 0 0.000764411 0.000764411 3.53022e-05 37.3462 5402.72 7147.83 
1161 0.7748 0.7748 0 0.000890477 0.000890477 -2.02709e-05 34.4978 5674.96 7583.51 
1201 0.6478 0.6478 0 0.000957933 0.000957933 1.78547e-05 28.11 5066.1 6690.3 
2 0.3614 0.3614 0 0.000901264 0.000901264 -3.2602e-05 29.4836 5615.56 7522.27 
42 9.2866 9.2866 0 0.039343 0.039343 -0.000104765 393.43 30197.2 41619 
82 10.2652 10.2652 0 0.0427024 0.0427024 1.49802e-05 427.024 27566.5 38071.4 
122 10.5696 10.5696 0 0.0436726 0.0436726 4.29206e-05 436.726 26337.1 36852.7 
162 10.6802 10.6802 0 0.0440749 0.0440749 2.23448e-05 440.749 26338.3 36267.3 
202 10.628 10.628 0 0.0439082 0.0439082 0.000122988 439.082 25601.3 35977.1 
242 10.1808 10.1808 0 0.0422879 0.0422879 0.000131482 422.879 27038.5 37063.4 
282 9.2332 9.2332 0 0.0389521 0.0389521 4.96361e-05 389.521 30148.9 41619.9 
322 0.2952 0.2952 0 0.000604315 0.000604315 4.07862e-05 23.852 4381.02 6179.47 
362 0.7084 0.7084 0 0.000883318 0.000883318 2.45614e-05 31.3446 5444.03 7204.46 
402 0.8116 0.8116 0 0.000772648 0.000772648 -1.76947e-05 36.1431 5143.23 6821.86 
442 0.8532 0.8532 0 0.000731344 0.000731344 -1.46003e-05 37.7368 4997.48 6716.29 
482 0.9108 0.9108 0 0.000646985 0.000646985 -6.97193e-06 40.4436 5087.66 6880.7 
522 0.9132 0.9132 0 0.000640911 0.000640911 2.90906e-06 40.0957 5029.42 6799.79 
562 0.8906 0.8906 0 0.00064149 0.00064149 -1.1394e-05 38.6847 4619.89 6384.65 
602 0.763 0.763 0 0.000763482 0.000763482 -3.26349e-05 33.7998 4934.05 6412.39 
642 0.0792 0.0792 0 -0.000298758 -0.000298758 1.12841e-05 2.98758 207.614 376.007 
682 0.1512 0.1512 0 -0.000625296 -0.000625296 -1.60039e-05 6.25296 589.593 849.28 
722 0.1928 0.1928 0 -0.000828656 -0.000828656 -1.29769e-05 8.28656 611.917 923.157 
762 0.2076 0.2076 0 -0.00090294 -0.00090294 -1.51703e-06 9.0294 747.457 1098.86 
802 0.2086 0.2086 0 -0.000896928 -0.000896928 -2.45003e-05 8.96928 710.465 1052.53 
842 0.1762 0.1762 0 -0.000746166 -0.000746166 -2.9703e-06 7.46166 503.889 734.244 
882 0.1188 0.1188 0 -0.000480728 -0.000480728 -8.56737e-06 4.80728 402.42 572.18 
922 0.0354 0.0354 0 -0.000109153 -0.000109153 4.79743e-06 2.61742 375.549 561.435 
962 0.8196 0.8196 0 0.000670201 0.000670201 2.26736e-05 36.1654 4285.3 5949.65 
1002 0.9454 0.9454 0 0.000663896 0.000663896 5.11537e-06 41.4967 5190.18 6926.42 
1042 0.8972 0.8972 0 0.000637518 0.000637518 -5.00998e-05 39.1026 4593.07 6425.18 
1082 0.8712 0.8712 0 0.000699047 0.000699047 -1.19175e-05 38.6892 5017.47 6729.76 
1122 0.8722 0.8722 0 0.000747589 0.000747589 -2.39401e-05 38.9475 5446.68 7324.71 
1162 0.7668 0.7668 0 0.000803264 0.000803264 3.94957e-05 33.8022 5093.66 6619.18 
1202 0.6474 0.6474 0 0.000964901 0.000964901 -3.34236e-05 28.298 5100.37 6850.74 
3 0.4312 0.4312 0 0.00117034 0.00117034 9.39407e-06 35.6702 6542.16 9413.07 
43 9.353 9.353 0 0.0394309 0.0394309 6.99766e-05 394.309 30741.8 42876.2 
83 10.2614 10.2614 0 0.0426812 0.0426812 3.54245e-05 426.812 28038.4 38648.6 
123 10.535 10.535 0 0.0435891 0.0435891 5.72214e-05 435.891 25837.3 35509.2 
163 10.591 10.591 0 0.0436956 0.0436956 -0.000124255 436.956 25041.7 35118.4 
203 10.491 10.491 0 0.0434608 0.0434608 -2.83662e-05 434.608 25961.2 35970.9 
243 10.1568 10.1568 0 0.0421843 0.0421843 1.5678e-05 421.843 26815.8 37400.8 
283 9.1188 9.1188 0 0.0385605 0.0385605 -5.35358e-05 385.605 29499.9 40999.8 
323 0.557 0.557 0 0.00103346 0.00103346 -2.55597e-05 21.6061 4294.92 5816.85 
363 0.6906 0.6906 0 0.000833248 0.000833248 -2.68904e-05 30.6809 5180.07 6938.86 
403 0.7976 0.7976 0 0.000821156 0.000821156 -3.69752e-05 35.8404 5644.71 7566.19 
443 0.8784 0.8784 0 0.00070666 0.00070666 -3.27256e-05 38.8977 5375.65 7049.28 
483 0.8944 0.8944 0 0.000675632 0.000675632 2.12552e-05 39.5794 4920.53 6935.94 
523 0.9128 0.9128 0 0.000584047 0.000584047 -3.91446e-05 39.4903 4492.38 6403.39 
563 0.9162 0.9162 0 0.000635266 0.000635266 -8.74657e-06 39.8516 4482.2 6165.76 
603 0.7428 0.7428 0 0.000803331 0.000803331 -1.15288e-05 32.5719 4510.05 5977.85 
643 0.0856 0.0856 0 -0.000335183 -0.000335183 8.86628e-06 3.35183 266.535 378.642 
683 0.1608 0.1608 0 -0.000653121 -0.000653121 1.11174e-05 6.53121 554.419 820.912 
723 0.197 0.197 0 -0.000857015 -0.000857015 1.70239e-05 8.57015 780.283 1087.87 
763 0.217 0.217 0 -0.000917198 -0.000917198 -1.02828e-05 9.17198 835.921 1100.19 
803 0.2124 0.2124 0 -0.000906986 -0.000906986 -2.02927e-05 9.06986 775.483 1012.64 
843 0.1742 0.1742 0 -0.000716918 -0.000716918 1.13149e-05 7.16918 541.664 756.31 
883 0.1226 0.1226 0 -0.000485839 -0.000485839 -1.36573e-05 4.85839 386.431 648.896 
923 0.0408 0.0408 0 -0.000112181 -0.000112181 -4.17808e-06 2.95405 275.281 506.782 
963 0.8468 0.8468 0 0.000695595 0.000695595 -1.52764e-05 37.2624 4673.12 6371.7 
1003 0.8984 0.8984 0 0.000625524 0.000625524 -2.29245e-05 39.0604 4807.58 6546.23 
1043 0.9164 0.9164 0 0.00067941 0.00067941 -1.32171e-05 40.3025 5005.58 6735.61 
1083 0.8818 0.8818 0 0.000674971 0.000674971 -1.16498e-05 38.7162 5157.38 7025.68 
1123 0.8478 0.8478 0 0.000749705 0.000749705 4.46547e-06 37.6175 5534.37 7350.73 
1163 0.7542 0.7542 0 0.000782636 0.000782636 3.0289e-05 34.0186 5410.02 7248.56 
1203 0.6474 0.6474 0 0.000966835 0.000966835 2.37198e-05 28.1549 5233.21 6893.8 
4 0.513 0.513 0 0.00165078 0.00165078 -1.17185e-05 43.3194 8361.31 11120.5 
44 9.4154 9.4154 0 0.0397957 0.0397957 0.000104952 397.957 30111.8 41796.2 
84 10.2832 10.2832 0 0.0428455 0.0428455 -4.06773e-05 428.455 27373.7 37703.9 
124 10.595 10.595 0 0.043894 0.043894 2.1901e-05 438.94 26210.1 36726.3 
164 10.7374 10.7374 0 0.044187 0.044187 -4.76511e-06 441.87 25468.9 35456.5 
204 10.56 10.56 0 0.0436794 0.0436794 -0.000100483 436.794 25915.4 35488.7 
244 10.297 10.297 0 0.0428239 0.0428239 0.000103906 428.239 28177.8 38998.3 
284 9.1084 9.1084 0 0.0386319 0.0386319 0.000110024 386.319 30108.8 42042 
324 0.5826 0.5826 0 0.00103672 0.00103672 -2.60421e-05 23.1501 3990.32 5614.55 
364 0.7436 0.7436 0 0.00090344 0.00090344 3.82331e-05 32.7879 5593.14 7388.11 
404 0.82 0.82 0 0.000781636 0.000781636 -4.05401e-06 36.1534 5518.36 7156.5 
444 0.8762 0.8762 0 0.000705309 0.000705309 6.40499e-05 38.65 5269.83 7351.83 
484 0.8974 0.8974 0 0.000681675 0.000681675 1.72977e-05 39.3512 4881.63 6751.15 
524 0.9116 0.9116 0 0.000689752 0.000689752 -8.76159e-06 40.0468 5212.18 6842.69 
564 0.884 0.884 0 0.00063805 0.00063805 -4.25381e-05 38.6037 4635.89 6395.41 
604 0.7476 0.7476 0 0.00081648 0.00081648 3.07144e-05 32.768 4478.37 5932.51 
644 0.0892 0.0892 0 -0.000347133 -0.000347133 2.2151e-05 3.47133 276.983 462.746 
684 0.1426 0.1426 0 -0.000600446 -0.000600446 -6.75932e-06 6.00446 409.024 600.279 
724 0.1884 0.1884 0 -0.000812977 -0.000812977 -6.06713e-06 8.12977 736.249 1027.8 
764 0.2114 0.2114 0 -0.000906816 -0.000906816 -2.1396e-06 9.06816 733.045 1072.27 
804 0.2038 0.2038 0 -0.000861971 -0.000861971 -2.20695e-05 8.61971 677.157 980.521 
844 0.18 0.18 0 -0.000762555 -0.000762555 3.99606e-06 7.62555 598.034 839.878 
884 0.117 0.117 0 -0.000462724 -0.000462724 -1.679e-05 4.62724 284.078 496.837 
924 0.051 0.051 0 -0.000112925 -0.000112925 1.75582e-06 3.6242 456.984 643.056 
964 0.8492 0.8492 0 0.000657295 0.000657295 -2.64232e-05 37.4494 4682 6429.35 
1004 0.9148 0.9148 0 0.000619873 0.000619873 5.90311e-06 39.925 4529.06 6290.68 
1044 0.9004 0.9004 0 0.000605267 0.000605267 -2.58136e-06 39.5144 5040.26 6876.85 
1084 0.871 0.871 0 0.000691323 0.000691323 -1.60875e-05 38.4935 5033.67 6765.72 
1124 0.8284 0.8284 0 0.000778882 0.000778882 -6.05359e-05 37.2477 5449.56 7174.73 
1164 0.7622 0.7622 0 0.000793586 0.000793586 1.71909e-05 34.1649 5445.22 7315.38 
1204 0.6456 0.6456 0 0.000928856 0.000928856 -4.02514e-05 28.0336 5122.42 6834.83 
5 0.6276 0.6276 0 0.00215285 0.00215285 3.45917e-05 53.3216 9852.69 13592.7 
45 9.3566 9.3566 0 0.0395639 0.0395639 -1.03544e-05 395.639 29623.2 41435.6 
85 10.2396 10.2396 0 0.042641 0.042641 3.30395e-05 426.41 26837.2 37625.1 
125 10.686 10.686 0 0.0441609 0.0441609 -2.17908e-05 441.609 27154.2 37941 
165 10.7068 10.7068 0 0.04414 0.04414 1.28349e-05 441.4 25651.5 35738.7 
205 10.5154 10.5154 0 0.0435358 0.0435358 1.82315e-05 435.358 26097.1 36266 
245 10.18 10.18 0 0.0423279 0.0423279 -9.9189e-05 423.279 26844.3 37362.2 
285 9.0764 9.0764 0 0.0384432 0.0384432 4.25617e-05 384.432 30863 43246.3 
325 0.5812 0.5812 0 0.00104812 0.00104812 9.32331e-06 23.1699 4211.97 5910.29 
365 0.7362 0.7362 0 0.000860835 0.000860835 -9.76506e-06 32.2901 5455.86 7048.27 
405 0.8144 0.8144 0 0.000811942 0.000811942 -1.04258e-05 36.3537 5425.22 7114.91 
445 0.8904 0.8904 0 0.000646376 0.000646376 -1.01053e-05 39.1112 5282.5 7259.52 
485 0.93 0.93 0 0.000690256 0.000690256 1.94411e-05 40.7006 4969.64 6846.25 
525 0.9234 0.9234 0 0.000620622 0.000620622 -4.85699e-05 40.1433 4742.01 6531.58 
565 0.896 0.896 0 0.000637192 0.000637192 2.47676e-06 38.8537 4564.49 6308.52 
605 0.7228 0.7228 0 0.000818236 0.000818236 6.23702e-05 31.9827 4381.54 5905.2 
645 0.0814 0.0814 0 -0.000313909 -0.000313909 -3.26556e-07 3.13909 199.872 371.937 
685 0.1536 0.1536 0 -0.000639891 -0.000639891 -1.5741e-05 6.39891 587.871 756.988 
725 0.1932 0.1932 0 -0.000829003 -0.000829003 1.06212e-05 8.29003 651.219 977.983 
765 0.2158 0.2158 0 -0.000931685 -0.000931685 -4.92044e-06 9.31685 861.291 1226.22 
805 0.2048 0.2048 0 -0.000867726 -0.000867726 -2.00398e-05 8.67726 822.58 1131.94 
845 0.17 0.17 0 -0.000696796 -0.000696796 1.29597e-05 6.96796 498.275 700.864 
885 0.1256 0.1256 0 -0.000519453 -0.000519453 -4.40795e-06 5.19453 491.069 693.537 
925 0.0588 0.0588 0 -0.00010057 -0.00010057 6.40778e-07 4.18955 692.879 942.113 
965 0.8444 0.8444 0 0.000647545 0.000647545 -8.47724e-05 37.0115 4730.57 6223.41 
1005 0.8946 0.8946 0 0.000587362 0.000587362 -7.99759e-06 38.9152 4686.06 6299.93 
1045 0.8976 0.8976 0 0.000675433 0.000675433 -3.05056e-05 39.622 4865.38 6812.06 
1085 0.9214 0.9214 0 0.00070382 0.00070382 1.84469e-05 40.7967 5559.01 7476.74 
1125 0.8346 0.8346 0 0.000792713 0.000792713 4.1604e-05 37.1021 5422.53 7127.72 
1165 0.7896 0.7896 0 0.000880637 0.000880637 -1.475e-05 35.2887 5834.17 7752.17 
1205 0.6566 0.6566 0 0.000966713 0.000966713 8.57134e-06 28.374 5238.76 7013.12 
6 0.8186 0.8186 0 0.00306231 0.00306231 3.21577e-05 70.7488 12679.9 17423.8 
46 9.4912 9.4912 0 0.0399504 0.0399504 -8.90676e-07 399.504 30151.6 41669.8 
86 10.3574 10.3574 0 0.0430781 0.0430781 -8.06519e-05 430.781 27924.6 38335.5 
126 10.5964 10.5964 0 0.0439423 0.0439423 -0.00012499 439.423 26498.1 37450.9 
166 10.7476 10.7476 0 0.0442374 0.0442374 6.14514e-05 442.374 25371.9 35551.2 
206 10.5976 10.5976 0 0.0437926 0.0437926 0.000104242 437.926 26708.6 36187.6 
246 10.1488 10.1488 0 0.0423332 0.0423332 0.000152467 423.332 28639.3 39190.6 
286 9.0022 9.0022 0 0.0381536 0.0381536 -3.70444e-05 381.536 30708.9 42216.5 
326 0.5864 0.5864 0 0.00102615 0.00102615 -4.43464e-06 23.2319 4274.21 6057.85 
366 0.7204 0.7204 0 0.000849376 0.000849376 -2.80214e-05 32.2665 5250.05 7037.07 
406 0.8038 0.8038 0 0.000805227 0.000805227 6.2622e-05 35.7886 5312.64 7152.82 
446 0.8838 0.8838 0 0.000699659 0.000699659 -6.75168e-06 38.862 5086.49 6996.63 
486 0.8998 0.8998 0 0.000694768 0.000694768 -4.3721e-05 39.9477 5174.18 7256.26 
526 0.9266 0.9266 0 0.00061219 0.00061219 5.43311e-05 40.8631 4916.5 6751.69 
566 0.8944 0.8944 0 0.000661727 0.000661727 -3.34203e-05 39.0648 4549.05 6401.34 
606 0.7134 0.7134 0 0.000869898 0.000869898 -3.2871e-05 31.1019 4846.45 6281.35 
646 0.0852 0.0852 0 -0.000331803 -0.000331803 -1.58258e-06 3.31803 253.904 373.394 
686 0.151 0.151 0 -0.000625767 -0.000625767 -2.97872e-06 6.25767 349.061 549.645 
726 0.199 0.199 0 -0.000868216 -0.000868216 1.60339e-05 8.68216 715.58 1003.27 
766 0.2148 0.2148 0 -0.000930597 -0.000930597 3.21248e-06 9.30597 736.84 1022.34 
806 0.2078 0.2078 0 -0.000890171 -0.000890171 1.96829e-05 8.90171 772.188 1126.06 
846 0.1886 0.1886 0 -0.000788326 -0.000788326 -1.38689e-05 7.88326 598.773 832.334 
886 0.12 0.12 0 -0.000463689 -0.000463689 1.14391e-06 4.63689 351.268 530.641 
926 0.0698 0.0698 0 -9.97257e-05 -9.97257e-05 -7.53895e-06 5.09988 744.064 1138.85 
966 0.866 0.866 0 0.000672595 0.000672595 -4.83105e-05 38.2368 4737.55 6346.99 
1006 0.9238 0.9238 0 0.00064239 0.00064239 -9.32592e-06 40.7324 4632.27 6338.91 
1046 0.9226 0.9226 0 0.000616475 0.000616475 -7.27939e-06 40.5902 4829.35 6633.09 
1086 0.8794 0.8794 0 0.000764363 0.000764363 2.06604e-05 39.1823 5227.22 7107.39 
1126 0.841 0.841 0 0.000778551 0.000778551 4.29304e-06 37.8283 5531.42 7393.17 
1166 0.7406 0.7406 0 0.000740484 0.000740484 -8.24631e-06 33.262 5109.46 6890.44 
1206 0.6376 0.6376 0 0.000948375 0.000948375 -3.98938e-06 27.1231 4654.02 6227.55 
7 0.944 0.944 0 0.00365831 0.00365831 -2.12826e-05 82.2086 15267.5 20964.2 
47 9.532 9.532 0 0.0402131 0.0402131 -1.78485e-05 402.131 30208.5 42360.2 
87 10.3336 10.3336 0 0.0429111 0.0429111 6.25144e-06 429.111 26323.6 37086.9 
127 10.5274 10.5274 0 0.0436405 0.0436405 0.000101658 436.405 26004.3 36425.6 
167 10.6726 10.6726 0 0.0438386 0.0438386 -0.000101886 438.386 24999.4 34904.7 
207 10.5426 10.5426 0 0.0435862 0.0435862 4.42455e-05 435.862 26811.2 36699.4 
247 10.1672 10.1672 0 0.042325 0.042325 2.25311e-05 423.25 28109.1 38627.7 
287 8.9698 8.9698 0 0.0380198 0.0380198 -5.45481e-05 380.198 30460.7 42690 
327 0.5832 0.5832 0 0.000991416 0.000991416 1.33842e-05 23.8079 4323.76 5988.53 
367 0.7312 0.7312 0 0.000863997 0.000863997 -1.95042e-06 32.7349 5339.09 7147.47 
407 0.8136 0.8136 0 0.000737891 0.000737891 2.72536e-05 36.6109 5606.5 7661.12 
447 0.8636 0.8636 0 0.000703614 0.000703614 -2.32068e-05 38.2649 5156.26 6933.38 
487 0.892 0.892 0 0.000685057 0.000685057 -9.59522e-06 39.6936 4997.44 6713.13 
527 0.9192 0.9192 0 0.000629674 0.000629674 -3.58724e-05 39.8787 4979.59 6740.96 
567 0.8888 0.8888 0 0.000611741 0.000611741 -1.74977e-05 38.9568 4725.87 6442.43 
607 0.6964 0.6964 0 0.00079487 0.00079487 5.64343e-06 30.9332 4223.43 5574.29 
647 0.093 0.093 0 -0.000364245 -0.000364245 -5.58479e-06 3.64245 291.516 407.491 
687 0.1568 0.1568 0 -0.000649676 -0.000649676 9.6658e-06 6.49676 508.961 822.128 
727 0.204 0.204 0 -0.000881183 -0.000881183 -2.85468e-05 8.81183 718.977 1019.06 
767 0.2218 0.2218 0 -0.000931878 -0.000931878 -7.20656e-06 9.31878 772.073 1084.35 
807 0.2154 0.2154 0 -0.000933195 -0.000933195 1.78286e-05 9.33195 824.783 1155.63 
847 0.179 0.179 0 -0.000762432 -0.000762432 1.59844e-05 7.62432 603.791 927.389 
887 0.1168 0.1168 0 -0.000470124 -0.000470124 -9.05762e-06 4.70124 382.702 580.808 
927 0.0912 0.0912 0 -0.000108653 -0.000108653 -5.74587e-07 7.09489 1072.59 1499.79 
967 0.8736 0.8736 0 0.000634573 0.000634573 5.68568e-05 38.5703 4652.25 6456.34 
1007 0.9396 0.9396 0 0.000677539 0.000677539 7.25645e-05 40.9528 5010.5 6957.54 
1047 0.916 0.916 0 0.000721718 0.000721718 5.06891e-06 39.8794 4926.26 6704.85 
1087 0.8934 0.8934 0 0.000658039 0.000658039 1.8366e-05 39.165 5071.15 7129.78 
1127 0.8392 0.8392 0 0.000737733 0.000737733 -2.51737e-05 37.2701 5377.36 7371.34 
1167 0.7386 0.7386 0 0.000825547 0.000825547 -2.22145e-05 33.6275 5081.18 6800.73 
1207 0.629 0.629 0 0.000936616 0.000936616 -2.0947e-07 26.895 4847.93 6461.37 
8 1.0592 1.0592 0 0.00438205 0.00438205 2.11227e-05 94.871 17400.7 23668 
48 9.5248 9.5248 0 0.0401398 0.0401398 6.46489e-06 401.398 30416.4 42068.1 
88 10.3052 10.3052 0 0.0429159 0.0429159 2.43789e-05 429.159 28061.4 38589.3 
128 10.6316 10.6316 0 0.0440029 0.0440029 -5.188e-05 440.029 25664.9 35754 
168 10.6756 10.6756 0 0.0440104 0.0440104 0.000101946 440.104 25717.9 35367.4 
208 10.545 10.545 0 0.0435257 0.0435257 -3.3974e-05 435.257 26164.8 36492.4 
248 10.1152 10.1152 0 0.0420982 0.0420982 5.35673e-05 420.982 27911.2 38610.3 
288 8.927 8.927 0 0.0379654 0.0379654 2.75739e-06 379.654 31463.2 42966 
328 0.581 0.581 0 0.00103768 0.00103768 1.2913e-05 23.5888 4362.16 5756.44 
368 0.7276 0.7276 0 0.000867832 0.000867832 1.68011e-05 32.143 5171.18 6853.59 
408 0.8158 0.8158 0 0.000735833 0.000735833 4.71214e-06 36.6911 5255.01 7087.09 
448 0.8604 0.8604 0 0.000677973 0.000677973 2.29606e-05 38.3045 5390.47 7055.63 
488 0.9006 0.9006 0 0.000700426 0.000700426 3.66986e-05 39.8384 4937 6669.7 
528 0.9252 0.9252 0 0.000627277 0.000627277 1.18099e-05 40.4385 4983.3 6842.13 
568 0.8818 0.8818 0 0.000672896 0.000672896 -1.64882e-05 38.3339 4450.34 6262.84 
608 0.6978 0.6978 0 0.000866994 0.000866994 2.84046e-05 30.8045 4419.48 5737.78 
648 0.085 0.085 0 -0.000335457 -0.000335457 -1.34727e-05 3.35457 258.183 370.653 
688 0.1606 0.1606 0 -0.000674965 -0.000674965 -1.74054e-06 6.74965 464.728 678.885 
728 0.2038 0.2038 0 -0.000874005 -0.000874005 4.48443e-06 8.74005 740.899 1149.7 
768 0.2122 0.2122 0 -0.000926189 -0.000926189 -2.78857e-06 9.26189 865.459 1135.02 
808 0.2056 0.2056 0 -0.000893928 -0.000893928 3.83016e-06 8.93928 725.721 974.818 
848 0.164 0.164 0 -0.000699155 -0.000699155 -4.14941e-06 6.99155 548.078 850.642 
888 0.1194 0.1194 0 -0.000485192 -0.000485192 3.49079e-06 4.85192 482.669 644.285 
928 0.1062 0.1062 0 -7.44555e-05 -7.44555e-05 6.65213e-06 8.29079 1423.99 1942.02 
968 0.845 0.845 0 0.000678952 0.000678952 -3.34045e-05 37.0446 4467.45 6053.54 
1008 0.927 0.927 0 0.000670267 0.000670267 -5.9798e-06 40.7268 4863.44 6768.84 
1048 0.9208 0.9208 0 0.000714652 0.000714652 -2.38103e-05 40.6483 4999.34 6886.28 
1088 0.8878 0.8878 0 0.000703901 0.000703901 1.54288e-05 39.344 5114.56 6900.02 
1128 0.8324 0.8324 0 0.000790844 0.000790844 -2.75103e-05 37.1162 5352.71 7224.69 
1168 0.7344 0.7344 0 0.000784055 0.000784055 1.66387e-05 32.6108 5277.44 7053.32 
1208 0.6236 0.6236 0 0.000936317 0.000936317 1.63448e-05 26.7724 4859.97 6435.19 
9 1.2212 1.2212 0 0.0051978 0.0051978 2.04782e-05 109.125 18937.6 25880.2 
49 9.5624 9.5624 0 0.0401854 0.0401854 7.58824e-05 401.854 29454.7 40699.3 
89 10.2714 10.2714 0 0.0428253 0.0428253 -1.20354e-06 428.253 26646.6 36717.4 
129 10.6612 10.6612 0 0.0441845 0.0441845 1.19078e-05 441.845 25690.7 36043.9 
169 10.6736 10.6736 0 0.0440833 0.0440833 -9.51167e-05 440.833 25515.1 35868.3 
209 10.5344 10.5344 0 0.0436143 0.0436143 6.77259e-05 436.143 26618.1 37056.7 
249 10.1118 10.1118 0 0.0421516 0.0421516 5.78252e-05 421.516 28384.2 39208.9 
289 8.8376 8.8376 0 0.0375157 0.0375157 3.86574e-05 375.157 30764.6 42908.3 
329 0.597 0.597 0 0.00103732 0.00103732 -3.49454e-05 24.6248 4847.69 6574.61 
369 0.731 0.731 0 0.000882713 0.000882713 6.59878e-05 32.7802 5239.54 6920.06 
409 0.8128 0.8128 0 0.000780549 0.000780549 -1.54241e-05 35.8138 5442.76 7166.76 
449 0.8572 0.8572 0 0.000706436 0.000706436 -2.89203e-05 37.9082 5389.63 7260.18 
489 0.9024 0.9024 0 0.00072562 0.00072562 -6.23737e-05 39.697 5337.4 7216.65 
529 0.9274 0.9274 0 0.000679577 0.000679577 5.33701e-05 40.8092 4894.7 6523.91 
569 0.8798 0.8798 0 0.000632 0.000632 -4.85695e-07 38.4041 4407.25 6129.7 
609 0.67 0.67 0 0.000892956 0.000892956 -2.96831e-06 29.7879 4448.65 5966.48 
649 0.0974 0.0974 0 -0.000390889 -0.000390889 -1.63963e-07 3.90889 295.524 514.438 
689 0.1616 0.1616 0 -0.000673733 -0.000673733 2.66927e-06 6.73733 532.566 753.297 
729 0.1956 0.1956 0 -0.000828233 -0.000828233 9.71598e-06 8.28233 722.065 1041.35 
769 0.2194 0.2194 0 -0.000944092 -0.000944092 -1.75421e-05 9.44092 676.135 1040.63 
809 0.1958 0.1958 0 -0.000827464 -0.000827464 -1.27546e-05 8.27464 715.295 1171.44 
849 0.1844 0.1844 0 -0.000780847 -0.000780847 -2.15981e-05 7.80847 734.914 1067.67 
889 0.111 0.111 0 -0.000458109 -0.000458109 -2.03953e-05 4.58109 406.784 661.931 
929 0.1258 0.1258 0 -2.92945e-05 -2.92945e-05 4.01492e-06 10.1271 1831.96 2415.84 
969 0.8618 0.8618 0 0.00066454 0.00066454 -1.20013e-06 37.6207 4198.2 5946.33 
1009 0.9238 0.9238 0 0.000637164 0.000637164 -4.40736e-05 40.798 4716.13 6616.99 
1049 0.895 0.895 0 0.000614766 0.000614766 -3.82648e-05 39.4917 5015.38 6811.6 
1089 0.8912 0.8912 0 0.000682609 0.000682609 -4.52938e-05 39.1806 4996.51 6905.75 
1129 0.8306 0.8306 0 0.000724163 0.000724163 -3.00923e-05 37.1889 5329.65 7007.96 
1169 0.761 0.761 0 0.000871943 0.000871943 -2.39844e-05 33.5824 5614.68 7517.07 
1209 0.646 0.646 0 0.000990373 0.000990373 -3.4217e-05 27.2325 5190.42 6813.45 
10 1.5038 1.5038 0 0.00662695 0.00662695 2.20707e-05 135.45 21883 29826 
50 9.5478 9.5478 0 0.0401187 0.0401187 4.81464e-05 401.187 29097.4 40149.7 
90 10.4314 10.4314 0 0.0432983 0.0432983 8.13351e-05 432.983 27439.7 38169.1 
130 10.613 10.613 0 0.0438016 0.0438016 -0.000105906 438.016 25568.8 35177.2 
170 10.6508 10.6508 0 0.0438482 0.0438482 -9.64424e-05 438.482 24965.2 34951.4 
210 10.6162 10.6162 0 0.0437173 0.0437173 3.1703e-06 437.173 25708.1 35700.3 
250 10.203 10.203 0 0.0424406 0.0424406 -4.66712e-05 424.406 28769.8 39775.5 
290 8.786 8.786 0 0.0374612 0.0374612 2.69385e-05 374.612 31817 43602.6 
330 0.5852 0.5852 0 0.00102112 0.00102112 -2.70995e-06 24.0728 4365.3 5950.05 
370 0.7416 0.7416 0 0.000843475 0.000843475 5.80829e-05 32.7475 5316.17 7179.43 
410 0.8012 0.8012 0 0.000777617 0.000777617 1.10499e-05 35.7453 5326.25 6968.26 
450 0.9016 0.9016 0 0.000693626 0.000693626 1.33836e-05 39.5474 5145.79 6955.75 
490 0.9014 0.9014 0 0.000660432 0.000660432 -2.16136e-05 39.3924 4975.44 6637.1 
530 0.9018 0.9018 0 0.000594314 0.000594314 -2.39667e-05 39.558 4754.47 6514.22 
570 0.8724 0.8724 0 0.000642428 0.000642428 3.2997e-05 38.6558 4361.78 5998.65 
610 0.6678 0.6678 0 0.000868471 0.000868471 -2.9643e-06 29.5233 4528.23 5821.5 
650 0.0936 0.0936 0 -0.000365393 -0.000365393 -2.3351e-06 3.65393 308.297 460.015 
690 0.1654 0.1654 0 -0.000703398 -0.000703398 6.71707e-06 7.03398 479.454 822.338 
730 0.2038 0.2038 0 -0.000900969 -0.000900969 7.47839e-06 9.00969 665.917 1110.32 
770 0.227 0.227 0 -0.000975963 -0.000975963 -2.22013e-06 9.75963 828.039 1081.34 
810 0.2004 0.2004 0 -0.000848263 -0.000848263 1.20382e-06 8.48263 872.925 1115.43 
850 0.1744 0.1744 0 -0.000740724 -0.000740724 -4.03641e-06 7.40724 458.989 697.121 
890 0.1096 0.1096 0 -0.000443741 -0.000443741 -9.91451e-07 4.43741 275.396 438.098 
930 0.167 0.167 0 2.15837e-06 2.15837e-06 6.81068e-06 13.8549 2505.48 3146.6 
970 0.8774 0.8774 0 0.000678789 0.000678789 3.54424e-05 38.5941 4920.18 6720.34 
1010 0.9106 0.9106 0 0.000709256 0.000709256 3.46188e-05 39.6566 4800.52 6640.06 
1050 0.926 0.926 0 0.000701538 0.000701538 1.63823e-06 41.4219 5279.33 7015.17 
1090 0.9076 0.9076 0 0.000719912 0.000719912 -5.68579e-05 39.9978 5547.12 7274.27 
1130 0.835 0.835 0 0.000772331 0.000772331 -9.05201e-06 37.6546 5343.61 7257.6 
1170 0.7254 0.7254 0 0.000865655 0.000865655 5.02621e-05 32.3853 5373.48 7112.81 
1210 0.6232 0.6232 0 0.000922325 0.000922325 7.42565e-06 26.5813 4665.26 6286.93 
11 1.786 1.786 0 0.00790255 0.00790255 3.40324e-05 159.842 25920.2 35348.9 
51 9.5928 9.5928 0 0.0403616 0.0403616 2.67696e-05 403.616 29729.7 41202.6 
91 10.3372 10.3372 0 0.0429132 0.0429132 7.86253e-05 429.132 26898.6 37442.3 
131 10.7118 10.7118 0 0.0441603 0.0441603 0.000136093 441.603 26336.5 36450.5 
171 10.6976 10.6976 0 0.0441524 0.0441524 2.63685e-05 441.524 25137.4 34784 
211 10.5422 10.5422 0 0.0436222 0.0436222 -0.000105108 436.222 26736.3 36996.6 
251 10.1354 10.1354 0 0.0423189 0.0423189 1.91079e-05 423.189 27901 38339.3 
291 8.7498 8.7498 0 0.0372433 0.0372433 -0.000188576 372.433 32455.9 44549.4 
331 0.6102 0.6102 0 0.00105188 0.00105188 -1.17112e-05 25.5233 4848.46 6554.04 
371 0.7448 0.7448 0 0.000816664 0.000816664 1.26957e-05 33.1846 5226.84 7109.1 
411 0.8384 0.8384 0 0.000802913 0.000802913 5.25781e-05 37.29 5232.32 7175.01 
451 0.8788 0.8788 0 0.000725263 0.000725263 3.45543e-06 39.284 5343.59 7329.82 
491 0.8922 0.8922 0 0.000683957 0.000683957 -2.59861e-05 39.1596 4983.15 6817.63 
531 0.9032 0.9032 0 0.000638905 0.000638905 2.01986e-05 40.1066 4885.75 6710.88 
571 0.9018 0.9018 0 0.000691987 0.000691987 4.08537e-05 39.5867 4770.43 6448.74 
611 0.6358 0.6358 0 0.000891187 0.000891187 -2.39481e-05 28.2923 4241.27 5572.83 
651 0.1042 0.1042 0 -0.000406343 -0.000406343 -1.52128e-05 4.06343 352.92 506.366 
691 0.1594 0.1594 0 -0.000675591 -0.000675591 -7.71717e-06 6.75591 451.285 636.521 
731 0.211 0.211 0 -0.000905584 -0.000905584 1.03468e-05 9.05584 753.522 1141.56 
771 0.2092 0.2092 0 -0.000903366 -0.000903366 2.39497e-06 9.03366 725.772 1073.93 
811 0.2086 0.2086 0 -0.000888553 -0.000888553 -3.51034e-07 8.88553 697.81 992.352 
851 0.1682 0.1682 0 -0.0006919 -0.0006919 7.96486e-06 6.919 622.588 939.552 
891 0.1112 0.1112 0 -0.000452563 -0.000452563 7.35541e-06 4.52563 402.764 604.14 
931 0.18 0.18 0 5.68786e-05 5.68786e-05 2.27564e-05 15.3502 2795.98 3550.39 
971 0.8636 0.8636 0 0.000616322 0.000616322 2.34188e-05 37.9 4544.05 6207.98 
1011 0.9204 0.9204 0 0.000645326 0.000645326 -3.31165e-05 39.8777 4720.52 6550.99 
1051 0.8986 0.8986 0 0.000700952 0.000700952 -4.07045e-06 39.3182 4862.28 6626.38 
1091 0.885 0.885 0 0.000696708 0.000696708 -2.7173e-05 38.7618 5427.82 7239.75 
1131 0.8446 0.8446 0 0.000798938 0.000798938 5.08664e-07 37.518 5765.26 7634.04 
1171 0.7402 0.7402 0 0.000794624 0.000794624 -1.04669e-05 32.9938 5307.32 6941.29 
1211 0.627 0.627 0 0.000987803 0.000987803 -1.2035e-05 26.8164 4699.99 6255.6 
12 1.937 1.937 0 0.00876415 0.00876415 -4.8505e-05 175.412 27525.5 37349.4 
52 9.6436 9.6436 0 0.0405723 0.0405723 -0.000102723 405.723 29424.4 41134.7 
92 10.315 10.315 0 0.0428785 0.0428785 3.34264e-05 428.785 27532.8 37790.9 
132 10.6236 10.6236 0 0.0438509 0.0438509 -2.74046e-05 438.509 26120.1 35709 
172 10.6128 10.6128 0 0.0438948 0.0438948 -7.58703e-06 438.948 25856.9 35843.4 
212 10.5816 10.5816 0 0.0435845 0.0435845 -9.5253e-05 435.845 26638.9 36842.7 
252 10.0662 10.0662 0 0.041955 0.041955 -6.3026e-05 419.55 27277.4 37757.3 
292 8.5946 8.5946 0 0.036639 0.036639 8.14709e-05 366.39 31649.3 43994.1 
332 0.6054 0.6054 0 0.00102987 0.00102987 4.04297e-06 25.3575 4806.33 6466.14 
372 0.7288 0.7288 0 0.000869467 0.000869467 -2.79262e-06 32.1737 5329.27 6996.82 
412 0.8298 0.8298 0 0.000754396 0.000754396 -2.99836e-05 37.4123 5525.83 7301.86 
452 0.8724 0.8724 0 0.000689928 0.000689928 9.68232e-06 38.549 5064.73 6816.75 
492 0.9104 0.9104 0 0.000672178 0.000672178 -2.09604e-05 40.2675 4968.33 6895.59 
532 0.918 0.918 0 0.000632387 0.000632387 -4.14344e-05 40.4569 4391.2 6198.12 
572 0.8812 0.8812 0 0.00061677 0.00061677 3.44693e-06 38.2571 4588.68 6440.82 
612 0.6374 0.6374 0 0.000961875 0.000961875 2.80323e-05 28.7616 4624.18 5936.19 
652 0.1016 0.1016 0 -0.00039251 -0.00039251 3.72919e-06 3.9251 221.926 437.737 
692 0.1586 0.1586 0 -0.000668082 -0.000668082 -4.03673e-06 6.68082 542.885 774.159 
732 0.2084 0.2084 0 -0.000890937 -0.000890937 -8.35292e-06 8.90937 793.781 1084.65 
772 0.2014 0.2014 0 -0.000879486 -0.000879486 1.2657e-05 8.79486 776.959 1059.85 
812 0.2012 0.2012 0 -0.000842195 -0.000842195 3.43141e-06 8.42195 740.477 998.27 
852 0.1688 0.1688 0 -0.000701566 -0.000701566 6.94446e-06 7.01566 568.218 882.37 
892 0.1008 0.1008 0 -0.00040003 -0.00040003 8.58691e-06 4.0003 266.416 421.877 
932 0.2066 0.2066 0 0.000130572 0.000130572 -1.3361e-05 17.9973 3218.79 4193.57 
972 0.8514 0.8514 0 0.000679713 0.000679713 -2.11116e-07 36.9967 4449.05 6046.18 
1012 0.899 0.899 0 0.000639898 0.000639898 1.0496e-05 39.5441 4713.24 6479.25 
1052 0.9302 0.9302 0 0.000661303 0.000661303 -6.95747e-06 41.1966 5144.09 7002.37 
1092 0.9144 0.9144 0 0.000755074 0.000755074 4.54606e-07 40.717 5330.12 7263.79 
1132 0.832 0.832 0 0.000753781 0.000753781 6.98353e-06 36.6704 5397.58 7239.34 
1172 0.7444 0.7444 0 0.00087566 0.00087566 -3.99403e-05 32.9466 5450.92 7284.9 