ITEM: TIMESTEP
25000
ITEM: NUMBER OF SURFS
1280
ITEM: BOX BOUNDS oo rr pp
0 0.3
0 0.3
-0.5 0.5
ITEM: SURFS id f_4[1] f_4[2] f_4[3] f_4[4] f_4[5] f_4[6] f_4[7] f_4[8] f_4[9] 
1 0.6878 0.6878 0 0.000955921 0.000955921 3.46486e-05 45.2193 7143.44 9771.38 
41 1.8634 1.8634 0 0.00566139 0.00566139 -3.43082e-05 125.134 17417.9 23547.5 
81 3.8744 3.8744 0 0.0159751 0.0159751 -0.00013532 261.072 30981.8 43193.9 
121 8.9558 8.9558 0 0.0385661 0.0385661 9.83725e-05 385.661 35781.4 49402.7 
161 10.2502 10.2502 0 0.0428595 0.0428595 -1.95736e-05 428.595 29511.8 40731.4 
201 10.6354 10.6354 0 0.0442383 0.0442383 -8.49046e-05 442.383 28997.7 39998.8 
241 10.5234 10.5234 0 0.0439434 0.0439434 2.23998e-05 439.434 28032.7 38930 
281 10.2242 10.2242 0 0.0430093 0.0430093 -7.93869e-05 430.093 31118.1 42505.3 
321 5.701 5.701 0 0.0246035 0.0246035 0.000168232 375.77 35198 48715.1 
361 3.8412 3.8412 0 0.0157571 0.0157571 7.44649e-05 258.022 30875.8 42534.8 
401 1.8036 1.8036 0 0.00559438 0.00559438 1.39055e-06 121.187 17352.6 23676 
441 1.0706 1.0706 0 0.0014985 0.0014985 -2.56013e-05 45.8093 7623.06 10016.9 
481 1.0308 1.0308 0 0.00103663 0.00103663 2.13813e-05 45.3779 6179.67 8128.86 
521 1.0308 1.0308 0 0.00091686 0.00091686 -1.25654e-05 45.2882 5989.46 8118.24 
561 1.0024 1.0024 0 0.00074384 0.00074384 -4.20605e-06 43.4744 5193.86 7055.47 
601 0.9814 0.9814 0 0.000714786 0.000714786 5.21943e-06 43.1453 5001.11 6832.41 
641 0.4956 0.4956 0 0.000518699 0.000518699 3.44415e-06 32.7308 4695.65 6169.52 
681 0.1834 0.1834 0 -7.47476e-05 -7.47476e-05 7.87262e-06 11.0428 1947.14 2369.09 
721 0.0502 0.0502 0 -0.000121274 -0.000121274 -8.15517e-06 2.7219 337.35 454.439 
761 0.1078 0.1078 0 -0.000423383 -0.000423383 -1.16424e-05 4.23383 298.486 467.908 
801 0.1962 0.1962 0 -0.000837763 -0.000837763 6.24103e-06 8.37763 766.119 1111.43 
841 0.216 0.216 0 -0.000929149 -0.000929149 4.5285e-06 9.29149 767.701 1089.76 
881 0.2148 0.2148 0 -0.000903225 -0.000903225 -2.35326e-05 9.03225 626.936 942.396 
921 0.1722 0.1722 0 -0.000724451 -0.000724451 -2.84749e-06 7.24451 551.916 885.155 
961 0.0714 0.0714 0 -0.00028279 -0.00028279 3.58431e-06 4.32146 390.686 551.661 
1001 0.0544 0.0544 0 -0.000135072 -0.000135072 4.0569e-06 3.04297 433.383 658.545 
1041 0.1706 0.1706 0 -5.87964e-05 -5.87964e-05 1.55578e-05 10.5685 1888.85 2426.78 
1081 0.7796 0.7796 0 0.000859584 0.000859584 4.76445e-05 34.3006 4393.09 5854.07 
1121 0.972 0.972 0 0.000760107 0.000760107 -1.04279e-05 42.0655 4746.84 6367.93 
1161 1.0008 1.0008 0 0.000757592 0.000757592 -1.14831e-05 43.3702 5160.23 6987.73 
1201 1.0148 1.0148 0 0.000925203 0.000925203 -1.50067e-05 44.6768 5802.73 7790.86 
1241 1.0004 1.0004 0 0.000965842 0.000965842 3.05312e-05 43.893 5749.3 7828.84 
2 0.7206 0.7206 0 0.00107978 0.00107978 -2.80956e-05 47.5171 8110.4 10737.5 
42 1.9478 1.9478 0 0.00624749 0.00624749 7.43521e-05 132.386 18944.8 25515.2 
82 3.903 3.903 0 0.015971 0.015971 4.80606e-05 261.163 30248.2 42676 
122 9.0496 9.0496 0 0.038929 0.038929 1.5998e-05 389.29 35503.5 48885.2 
162 10.2 10.2 0 0.0428025 0.0428025 1.88787e-05 428.025 29233.9 40998.7 
202 10.5516 10.5516 0 0.0437345 0.0437345 -6.64657e-05 437.345 28989.5 39675.4 
242 10.5778 10.5778 0 0.0439409 0.0439409 -2.38337e-05 439.409 28503 39520.5 
282 10.155 10.155 0 0.0425486 0.0425486 0.000135564 425.486 29468.7 41045.7 
322 5.7444 5.7444 0 0.0249445 0.0249445 -6.07585e-05 380.701 35658 49871 
362 3.6644 3.6644 0 0.0150921 0.0150921 -6.15286e-05 248.113 31019.4 42476.7 
402 1.803 1.803 0 0.00539868 0.00539868 3.91012e-05 121.429 17093.6 23302.7 
442 1.052 1.052 0 0.00143733 0.00143733 3.06004e-06 44.7888 7239.65 9539.51 
482 0.9834 0.9834 0 0.000958079 0.000958079 -8.10452e-06 43.4184 6054.2 7948.56 
522 1.0058 1.0058 0 0.0008758 0.0008758 1.21405e-05 43.7847 5547.11 7404.62 
562 1.0038 1.0038 0 0.000759318 0.000759318 1.80743e-05 43.9606 5118.17 6947.04 
602 0.9656 0.9656 0 0.000754667 0.000754667 -2.25708e-05 42.1601 5034.82 6839.95 
642 0.5108 0.5108 0 0.000552496 0.000552496 2.20647e-05 34.2194 4650.69 6304.8 
682 0.163 0.163 0 -8.13497e-05 -8.13497e-05 3.43403e-06 9.65949 1439.46 1925.73 
722 0.0532 0.0532 0 -0.000139306 -0.000139306 6.84563e-06 3.07131 338.373 450.056 
762 0.1054 0.1054 0 -0.000416052 -0.000416052 -1.38626e-05 4.16052 255.541 391.827 
802 0.1748 0.1748 0 -0.00072015 -0.00072015 -1.36064e-05 7.2015 570.676 902.773 
842 0.2146 0.2146 0 -0.000925069 -0.000925069 1.73367e-06 9.25069 691.814 964.573 
882 0.2212 0.2212 0 -0.000954164 -0.000954164 -1.26996e-05 9.54164 660.632 1081.86 
922 0.1742 0.1742 0 -0.000743695 -0.000743695 6.69358e-06 7.43695 644.79 941.703 
962 0.0654 0.0654 0 -0.000255265 -0.000255265 1.71887e-05 3.89647 268.676 440.916 
1002 0.0522 0.0522 0 -0.00012838 -0.00012838 -2.11714e-06 2.97142 283.009 385.434 
1042 0.1896 0.1896 0 -6.19014e-05 -6.19014e-05 1.5555e-05 11.6079 1714.42 2221.47 
1082 0.811 0.811 0 0.00089624 0.00089624 -3.63774e-05 35.7899 4519.04 6095.64 
1122 0.9572 0.9572 0 0.000718089 0.000718089 -2.32697e-05 41.7202 5132.36 6883.99 
1162 1.001 1.001 0 0.000788559 0.000788559 3.35167e-05 43.1399 5300.93 7019.78 
1202 1.0118 1.0118 0 0.000890196 0.000890196 4.41987e-05 44.0678 5443.35 7199.27 
1242 0.992 0.992 0 0.00103818 0.00103818 2.68893e-05 43.2129 6069.04 8034.16 
3 0.7236 0.7236 0 0.00108914 0.00108914 -5.99696e-07 47.6104 7492.3 10232.7 
43 1.9272 1.9272 0 0.00608756 0.00608756 -2.42358e-05 129.911 18110.4 24603.4 
83 3.976 3.976 0 0.0166223 0.0166223 -6.16318e-05 268.42 33474.5 45918.5 
123 9.0884 9.0884 0 0.0391227 0.0391227 6.41056e-06 391.227 34999.5 48497.6 
163 10.3398 10.3398 0 0.0432767 0.0432767 7.88034e-05 432.767 30433.2 41519.5 
203 10.5958 10.5958 0 0.0440568 0.0440568 -5.13111e-06 440.568 28306 38979.3 
243 10.5698 10.5698 0 0.0439835 0.0439835 3.7092e-05 439.835 28176.2 39525.9 
283 10.0818 10.0818 0 0.0422448 0.0422448 -9.86031e-06 422.448 28967.7 40731.9 
323 5.8142 5.8142 0 0.0250527 0.0250527 -5.33084e-05 382.185 36168.4 50244.5 
363 3.6474 3.6474 0 0.0149336 0.0149336 -4.70065e-05 247.407 30495.5 41485.7 
403 1.7738 1.7738 0 0.00535866 0.00535866 6.2173e-05 120.078 17352.6 23646 
443 1.0716 1.0716 0 0.00146223 0.00146223 3.28402e-06 45.8834 7527.75 9789.76 
483 0.9878 0.9878 0 0.000984599 0.000984599 1.33195e-06 43.599 5836.25 7957.58 
523 0.9908 0.9908 0 0.000822555 0.000822555 -1.5185e-05 42.9979 5794.68 7611.01 
563 1.0168 1.0168 0 0.000814461 0.000814461 1.26535e-05 44.2048 5268.69 7320.41 
603 0.9898 0.9898 0 0.000765422 0.000765422 -4.92851e-05 42.5464 5016.9 6823.74 
643 0.4804 0.4804 0 0.000503383 0.000503383 -3.06307e-05 32.0366 4602.85 5944.31 
683 0.1618 0.1618 0 -0.000105651 -0.000105651 4.65534e-07 9.97694 1536.51 2056.62 
723 0.0568 0.0568 0 -0.000148853 -0.000148853 -4.81951e-07 3.16163 363.769 460.765 
763 0.1126 0.1126 0 -0.000460585 -0.000460585 5.36069e-06 4.60585 384.463 585.81 
803 0.1966 0.1966 0 -0.000827134 -0.000827134 -8.7858e-06 8.27134 785.422 1119.7 
843 0.216 0.216 0 -0.000892028 -0.000892028 7.45879e-06 8.92028 622.299 891.092 
883 0.229 0.229 0 -0.00097048 -0.00097048 -5.10063e-06 9.7048 802.126 1095.92 
923 0.1782 0.1782 0 -0.000748618 -0.000748618 1.70854e-05 7.48618 544.516 824.604 
963 0.0628 0.0628 0 -0.000245248 -0.000245248 7.91899e-07 3.73984 327.611 493.603 
1003 0.0638 0.0638 0 -0.000147735 -0.000147735 1.16175e-05 3.63742 473.451 577.736 
1043 0.192 0.192 0 -6.21194e-05 -6.21194e-05 -6.74434e-06 12.3796 2016.08 2671.88 
1083 0.8362 0.8362 0 0.000873098 0.000873098 3.24134e-05 36.234 4924.21 6521.09 
1123 0.9784 0.9784 0 0.000745809 0.000745809 1.36255e-05 42.145 4777.23 6604.07 
1163 0.9988 0.9988 0 0.000779369 0.000779369 -1.94477e-05 43.176 4962.29 6858.78 
1203 1.0018 1.0018 0 0.000875781 0.000875781 5.32994e-05 43.6359 5390.55 7165.24 
1243 1.0056 1.0056 0 0.00102959 0.00102959 -2.42845e-05 43.751 6174.91 8298.58 
4 0.7364 0.7364 0 0.00119175 0.00119175 8.94825e-06 48.9903 8203.34 10766.7 
44 1.9506 1.9506 0 0.00618237 0.00618237 8.59248e-06 132.002 17925.4 24329.1 
84 3.929 3.929 0 0.0163214 0.0163214 4.43914e-05 264.825 31097.1 43504.5 
124 9.1374 9.1374 0 0.0390883 0.0390883 -7.94038e-05 390.883 33828.2 47493.2 
164 10.3028 10.3028 0 0.0430916 0.0430916 0.000110513 430.916 29472.8 41241.8 
204 10.5402 10.5402 0 0.0439342 0.0439342 0.000100741 439.342 28921.9 40170.4 
244 10.502 10.502 0 0.0436357 0.0436357 -0.000109437 436.357 28752.1 39946.7 
284 10.1354 10.1354 0 0.04257 0.04257 -9.13048e-05 425.7 30344.8 42043.7 
324 5.628 5.628 0 0.0243566 0.0243566 2.41207e-08 371.383 34918.9 49521.7 
364 3.6596 3.6596 0 0.0145995 0.0145995 6.05753e-05 243.815 28587.7 40584.2 
404 1.7086 1.7086 0 0.00504889 0.00504889 3.89216e-05 114.687 16270 21865.5 
444 1.0688 1.0688 0 0.00140286 0.00140286 -8.6505e-06 46.0628 7081.18 9464.25 
484 0.9838 0.9838 0 0.00104084 0.00104084 -2.49627e-05 42.5872 5841.22 7745.67 
524 1.0014 1.0014 0 0.000867479 0.000867479 -3.01201e-06 44.2478 5939.25 7812.74 
564 0.9972 0.9972 0 0.000750965 0.000750965 -1.17097e-05 43.6787 5112.69 6905.45 
604 0.9518 0.9518 0 0.0007372 0.0007372 1.00831e-05 41.147 4818.88 6572.14 
644 0.494 0.494 0 0.000478748 0.000478748 2.42947e-06 32.7663 4314.77 5913.11 
684 0.1598 0.1598 0 -8.70797e-05 -8.70797e-05 5.36467e-06 9.77767 1703.18 2188.47 
724 0.0502 0.0502 0 -0.000136811 -0.000136811 3.77438e-06 2.78872 306.29 475.631 
764 0.1078 0.1078 0 -0.000435409 -0.000435409 -7.17474e-06 4.35409 325.04 446.311 
804 0.185 0.185 0 -0.000778581 -0.000778581 4.79878e-07 7.78581 517.947 822.343 
844 0.216 0.216 0 -0.000904318 -0.000904318 2.50922e-05 9.04318 800.807 1220.12 
884 0.2112 0.2112 0 -0.000891712 -0.000891712 -1.50957e-05 8.91712 785.205 1111.26 
924 0.1726 0.1726 0 -0.000727089 -0.000727089 -8.78144e-06 7.27089 550.286 818.045 
964 0.0616 0.0616 0 -0.000240433 -0.000240433 2.48348e-06 3.6693 277.082 466.241 
1004 0.064 0.064 0 -0.000141281 -0.000141281 7.61083e-06 3.55965 477.399 634.969 
1044 0.2066 0.2066 0 -6.68958e-05 -6.68958e-05 1.50951e-05 12.7648 2118.38 2679.5 
1084 0.8222 0.8222 0 0.000810766 0.000810766 6.31759e-06 36.1516 4600.39 6268.82 
1124 0.9836 0.9836 0 0.00078592 0.00078592 -1.22094e-05 42.5587 4902.21 6666.86 
1164 1.0212 1.0212 0 0.000749953 0.000749953 1.22003e-06 44.5778 5348.93 7260.68 
1204 0.9936 0.9936 0 0.000875442 0.000875442 -1.02722e-05 43.4055 5611.45 7570.1 
1244 0.9948 0.9948 0 0.0010333 0.0010333 2.8092e-05 43.3478 6264.35 8473.64 
5 0.7692 0.7692 0 0.00125959 0.00125959 -3.11333e-05 50.2104 8059.22 10729.4 
45 2.0046 2.0046 0 0.00640169 0.00640169 2.77045e-05 134.399 18383.2 24801.8 
85 4.0526 4.0526 0 0.0170149 0.0170149 6.19942e-05 273.413 30519.4 43141.1 
125 9.3106 9.3106 0 0.0396998 0.0396998 -3.39582e-05 396.998 33681.5 46717.1 
165 10.2302 10.2302 0 0.0428265 0.0428265 -0.000232055 428.265 29127.8 39935 
205 10.642 10.642 0 0.0443772 0.0443772 -3.5487e-05 443.772 29301.6 40008.1 
245 10.5326 10.5326 0 0.0438831 0.0438831 -0.000109997 438.831 28200.3 38927 
285 10.2174 10.2174 0 0.0428358 0.0428358 7.7449e-06 428.358 29436.2 41609.1 
325 5.6642 5.6642 0 0.0246145 0.0246145 1.34169e-05 375.375 34908.9 49198.4 
365 3.6 3.6 0 0.0144352 0.0144352 3.03076e-05 241.59 29121.3 40979 
405 1.6784 1.6784 0 0.00489521 0.00489521 -4.65629e-05 112.724 15701.8 21626.9 
445 1.0754 1.0754 0 0.00142072 0.00142072 1.97962e-05 46.5625 7300.3 9710.19 
485 1.0022 1.0022 0 0.0010459 0.0010459 -1.33814e-05 43.7878 5937.69 7982.67 
525 1.0142 1.0142 0 0.000850118 0.000850118 -2.05269e-05 43.9674 5448.9 7420.06 
565 1.002 1.002 0 0.000818263 0.000818263 5.6285e-05 43.2421 5195.3 6945.1 
605 0.9894 0.9894 0 0.00078124 0.00078124 1.33128e-05 42.7178 5425.58 7293.5 
645 0.5 0.5 0 0.000485547 0.000485547 1.17655e-05 33.1923 4798.1 6367.24 
685 0.1444 0.1444 0 -6.61386e-05 -6.61386e-05 -7.13043e-07 8.57195 1691.49 2103.62 
725 0.0526 0.0526 0 -0.00014523 -0.00014523 -8.44523e-07 2.90163 472.67 600.588 
765 0.111 0.111 0 -0.000448502 -0.000448502 -2.63499e-07 4.48502 307.647 469.745 
805 0.178 0.178 0 -0.000764766 -0.000764766 -1.48661e-08 7.64766 561.116 741.616 
845 0.2162 0.2162 0 -0.000939052 -0.000939052 2.48582e-06 9.39052 725.489 992.313 
885 0.2096 0.2096 0 -0.000886517 -0.000886517 -6.05267e-06 8.86517 830.646 1183.05 
925 0.1818 0.1818 0 -0.000760761 -0.000760761 -8.26817e-06 7.60761 600.237 877.573 
965 0.0614 0.0614 0 -0.000240155 -0.000240155 -2.84244e-06 3.66368 380.267 588.339 
1005 0.0558 0.0558 0 -0.000113883 -0.000113883 -3.79381e-06 3.05431 473.711 634.254 
1045 0.205 0.205 0 -6.78484e-05 -6.78484e-05 -2.14954e-05 12.7826 2087.78 2672.2 
1085 0.8176 0.8176 0 0.000851735 0.000851735 -4.35511e-05 35.3585 4758 6262.92 
1125 0.9702 0.9702 0 0.000733361 0.000733361 4.58482e-06 42.1547 4986.36 6741.72 
1165 1.0128 1.0128 0 0.000770004 0.000770004 3.8138e-05 43.9748 5443.29 7425.73 
1205 0.9984 0.9984 0 0.000926802 0.000926802 -2.28063e-06 43.8957 5995.31 7982.17 
1245 1.0096 1.0096 0 0.001051 0.001051 -1.58836e-05 43.5516 6398.28 8441.17 
6 0.7802 0.7802 0 0.00136958 0.00136958 -8.56809e-06 51.6933 8670.13 11693.4 
46 2.1176 2.1176 0 0.00690418 0.00690418 -2.73621e-06 142.777 20228.6 27546.2 
86 4.2418 4.2418 0 0.0177988 0.0177988 -1.54176e-05 285.456 32180.7 44852.7 
126 9.3302 9.3302 0 0.0397189 0.0397189 1.07504e-05 397.189 32918.3 46299.2 
166 10.3766 10.3766 0 0.0434825 0.0434825 -1.52453e-05 434.825 29935.7 41511.8 
206 10.5388 10.5388 0 0.0439215 0.0439215 0.000128614 439.215 28647.8 40023.6 
246 10.531 10.531 0 0.0437602 0.0437602 6.98412e-06 437.602 28377.6 39297.5 
286 10.1936 10.1936 0 0.0427268 0.0427268 -0.000150685 427.268 29989.7 41820 
326 5.515 5.515 0 0.0238899 0.0238899 0.000233523 364.219 33718.3 47556 
366 3.529 3.529 0 0.0142962 0.0142962 -2.69063e-05 238.548 28356 40061.4 
406 1.6396 1.6396 0 0.00477897 0.00477897 -3.88566e-05 110.005 16370.5 21963.1 
446 1.0576 1.0576 0 0.00130936 0.00130936 -1.63794e-06 45.3886 6998.94 9150.69 
486 1.028 1.028 0 0.00104242 0.00104242 -8.1042e-05 45.4169 6360.43 8556.81 
526 0.998 0.998 0 0.000843692 0.000843692 1.73065e-05 43.77 5481.68 7482.98 
566 1.0094 1.0094 0 0.000761533 0.000761533 1.50348e-05 43.7255 5248.69 7071.86 
606 0.9608 0.9608 0 0.00072634 0.00072634 2.83013e-05 41.5861 4645.01 6179.98 
646 0.4502 0.4502 0 0.000365279 0.000365279 4.37352e-05 30.2294 4226.92 5490.11 
686 0.1504 0.1504 0 -0.000139011 -0.000139011 1.42861e-05 9.35172 1424.85 1916.59 
726 0.0484 0.0484 0 -0.000129254 -0.000129254 2.84617e-06 2.76171 367.328 525.624 
766 0.1172 0.1172 0 -0.000473009 -0.000473009 6.46965e-07 4.73009 353.616 532.943 
806 0.1882 0.1882 0 -0.000805104 -0.000805104 -3.07986e-05 8.05104 637.017 970.114 
846 0.213 0.213 0 -0.000910865 -0.000910865 5.45518e-06 9.10865 589.968 960.848 
886 0.2184 0.2184 0 -0.000941804 -0.000941804 1.74091e-05 9.41804 852.882 1149.78 
926 0.1716 0.1716 0 -0.00073181 -0.00073181 7.71535e-06 7.3181 568.753 874.761 
966 0.0634 0.0634 0 -0.000245957 -0.000245957 4.32957e-08 3.78535 296.389 461.691 
1006 0.0668 0.0668 0 -0.000139093 -0.000139093 -4.52941e-06 3.79475 485.033 602.855 
1046 0.2174 0.2174 0 -2.63196e-05 -2.63196e-05 -2.41183e-05 12.9859 2220.75 2881.76 
1086 0.8592 0.8592 0 0.000830399 0.000830399 -3.42914e-05 37.2755 4381.65 6073.51 
1126 0.963 0.963 0 0.00076031 0.00076031 -1.15933e-05 42.3372 4979.04 6819.29 
1166 1.0208 1.0208 0 0.000807217 0.000807217 -1.07396e-05 44.3376 5323.54 7115.53 
1206 1.0092 1.0092 0 0.000885277 0.000885277 -1.42018e-06 44.6474 5447.31 7590.86 
1246 1.0274 1.0274 0 0.00101387 0.00101387 -6.51982e-05 45.2751 6520.17 8813.34 
7 0.8088 0.8088 0 0.00139688 0.00139688 1.86113e-05 53.763 8581.49 11423.1 
47 2.1052 2.1052 0 0.00695137 0.00695137 -4.31709e-05 143.549 19259.9 26256 
87 4.0982 4.0982 0 0.017183 0.017183 -0.000146458 273.993 31114 43311.1 
127 9.3444 9.3444 0 0.0398412 0.0398412 -2.41624e-05 398.412 33089.8 45749.1 
167 10.3348 10.3348 0 0.0432317 0.0432317 -2.84946e-06 432.317 30429.4 41706.1 
207 10.6274 10.6274 0 0.0442891 0.0442891 -0.000209799 442.891 29264.3 40210 
247 10.576 10.576 0 0.0440756 0.0440756 -6.6971e-05 440.756 27933.9 39459.3 
287 10.1198 10.1198 0 0.0423735 0.0423735 0.000103388 423.735 29966.2 41521.6 
327 5.6468 5.6468 0 0.024298 0.024298 3.58023e-05 370.485 35117.9 48974.9 
367 3.4666 3.4666 0 0.0138043 0.0138043 -4.30505e-05 232.513 27743.4 38681.7 
407 1.5612 1.5612 0 0.00446258 0.00446258 8.94317e-06 106.24 16141.3 21761.2 
447 1.0492 1.0492 0 0.00125872 0.00125872 1.18493e-05 45.6505 6956.41 9084.42 
487 0.987 0.987 0 0.000962438 0.000962438 2.05694e-05 43.325 5637.06 7530.64 
527 0.9908 0.9908 0 0.000856913 0.000856913 -2.99942e-05 43.6177 5302.44 7150.75 
567 0.989 0.989 0 0.000726294 0.000726294 -3.79004e-05 43.0808 5244.09 7356.62 
607 0.9626 0.9626 0 0.000704864 0.000704864 1.71755e-05 41.661 4746.2 6540.01 
647 0.4506 0.4506 0 0.000394912 0.000394912 -1.58881e-05 30.2887 4676.06 6089.46 
687 0.1444 0.1444 0 -8.96265e-05 -8.96265e-05 -2.33327e-05 8.78894 1599.16 2076.31 
727 0.0556 0.0556 0 -0.000161995 -0.000161995 9.64346e-07 3.08378 338.232 430.297 
767 0.1216 0.1216 0 -0.00048366 -0.00048366 1.93513e-05 4.8366 417.032 654.948 
807 0.1966 0.1966 0 -0.000841759 -0.000841759 -9.51984e-07 8.41759 734.626 1076.46 
847 0.2252 0.2252 0 -0.000971444 -0.000971444 -5.21294e-07 9.71444 628.746 954.78 
887 0.2216 0.2216 0 -0.000950738 -0.000950738 -4.60146e-06 9.50738 758.089 1106.88 
927 0.1708 0.1708 0 -0.000731669 -0.000731669 3.41941e-06 7.31669 528.914 745.733 
967 0.0672 0.0672 0 -0.000266532 -0.000266532 1.23674e-05 4.06961 313.325 488.459 
1007 0.0604 0.0604 0 -0.00012802 -0.00012802 5.2746e-06 3.56213 512.285 592.64 
1047 0.22 0.22 0 -4.6376e-05 -4.6376e-05 1.29713e-05 14.0051 2258.24 2915.34 
1087 0.8584 0.8584 0 0.000812625 0.000812625 3.86146e-05 37.1426 4862.89 6571.52 
1127 0.9752 0.9752 0 0.000703508 0.000703508 -1.30928e-05 42.9594 5117.21 6839.35 
1167 0.983 0.983 0 0.000791636 0.000791636 1.8059e-05 43.4333 5479.18 7234.61 
1207 1.0036 1.0036 0 0.00086445 0.00086445 -1.19628e-05 43.6185 5605.18 7428.14 
1247 1.0136 1.0136 0 0.00107342 0.00107342 1.50755e-05 44.1269 6401.27 8511.54 
8 0.8098 0.8098 0 0.00147927 0.00147927 5.92477e-06 52.9262 8323 11205.7 
48 2.1018 2.1018 0 0.00689801 0.00689801 -2.274e-05 141.455 19104.5 25959.7 
88 4.1864 4.1864 0 0.0177751 0.0177751 -1.27701e-06 281.995 33933.7 46711.1 
128 9.4694 9.4694 0 0.0401984 0.0401984 0.00011749 401.984 32075.5 44660.9 
168 10.3784 10.3784 0 0.0433999 0.0433999 -5.85078e-05 433.999 29813.8 41100.7 
208 10.536 10.536 0 0.0438776 0.0438776 0.000104402 438.776 28573.3 39497 
248 10.4522 10.4522 0 0.0436117 0.0436117 -5.5638e-06 436.117 28055.7 38518.8 
288 10.17 10.17 0 0.0425562 0.0425562 7.27812e-05 425.562 30589.9 42260.5 
328 5.4668 5.4668 0 0.0236583 0.0236583 -7.89837e-05 360.788 33954.1 48067.6 
368 3.4234 3.4234 0 0.0135737 0.0135737 5.3624e-05 230.941 27270.9 37917.6 
408 1.5464 1.5464 0 0.00437547 0.00437547 -3.16968e-05 104.594 15744.1 20952.9 
448 1.0346 1.0346 0 0.00130902 0.00130902 3.13592e-05 44.779 6786.41 9057.81 
488 1.0122 1.0122 0 0.000968859 0.000968859 -1.22502e-05 44.1739 5977.21 7846.2 
528 1.029 1.029 0 0.000837273 0.000837273 2.18752e-05 44.9356 5661.48 7745.61 
568 1.0014 1.0014 0 0.000797217 0.000797217 -6.42272e-06 43.5654 5203.1 6856.51 
608 0.9512 0.9512 0 0.000715916 0.000715916 -2.59077e-05 41.2238 4962 6724.24 
648 0.4542 0.4542 0 0.000365863 0.000365863 -2.31907e-05 30.3467 4104.25 5496.31 
688 0.1454 0.1454 0 -9.31242e-05 -9.31242e-05 1.19856e-07 8.59219 1557.73 1975.04 
728 0.0472 0.0472 0 -0.000128512 -0.000128512 4.21997e-06 2.61742 358.784 475.784 
768 0.1284 0.1284 0 -0.000520829 -0.000520829 1.04695e-06 5.20829 348.245 491.085 
808 0.1882 0.1882 0 -0.000802554 -0.000802554 -1.27611e-05 8.02554 642.426 926.834 
848 0.2118 0.2118 0 -0.000890775 -0.000890775 3.17688e-06 8.90775 700.078 1022.21 
888 0.2086 0.2086 0 -0.000880456 -0.000880456 -1.1401e-05 8.80456 741.257 1042.22 
928 0.1666 0.1666 0 -0.000697158 -0.000697158 2.73834e-06 6.97158 569.199 832.354 
968 0.0634 0.0634 0 -0.000246983 -0.000246983 -6.32124e-07 3.77505 310.311 494.577 
1008 0.0654 0.0654 0 -0.000140239 -0.000140239 -1.05474e-06 3.7751 551.061 725.607 
1048 0.2282 0.2282 0 -3.05873e-05 -3.05873e-05 -1.55047e-05 14.5577 2243.7 2957.85 
1088 0.8526 0.8526 0 0.000759657 0.000759657 3.77206e-05 36.6689 4584.8 6183.88 
1128 0.9666 0.9666 0 0.000739367 0.000739367 4.25924e-06 41.6263 4709.19 6469.75 
1168 1.0266 1.0266 0 0.000847019 0.000847019 -2.1454e-05 44.9816 5388.47 7396.36 
1208 1.027 1.027 0 0.000892176 0.000892176 7.76186e-05 44.8729 5618.24 7670.4 
1248 1.0042 1.0042 0 0.00101665 0.00101665 1.01066e-05 43.721 5856.58 7882.87 
9 0.8202 0.8202 0 0.00151054 0.00151054 5.94746e-06 54.181 8317.4 11034.4 
49 2.2478 2.2478 0 0.00750503 0.00750503 -0.000142513 150.401 20332.1 28111.9 
89 4.2452 4.2452 0 0.0180825 0.0180825 9.68304e-05 285.962 32665.8 45569.5 
129 9.3638 9.3638 0 0.0398413 0.0398413 6.17853e-05 398.413 32583.2 45063 
169 10.2878 10.2878 0 0.0429949 0.0429949 1.57387e-05 429.949 29361.8 40635.6 
209 10.5916 10.5916 0 0.0441034 0.0441034 -8.03369e-05 441.034 28859.9 39989.6 
249 10.5238 10.5238 0 0.0438065 0.0438065 -2.41126e-05 438.065 26971.9 37761.6 
289 10.1008 10.1008 0 0.0424771 0.0424771 -7.38283e-06 424.771 30244.2 42421.2 
329 5.4624 5.4624 0 0.0236497 0.0236497 7.40706e-05 360.915 34368.6 48349.2 
369 3.4024 3.4024 0 0.0133864 0.0133864 -9.62885e-06 228.353 27648.3 38424.4 
409 1.5234 1.5234 0 0.0042205 0.0042205 6.56272e-06 101.828 14984.8 20220.3 
449 1.0586 1.0586 0 0.0012497 0.0012497 -2.80699e-06 45.5639 6740.3 9092.92 
489 0.9732 0.9732 0 0.000987181 0.000987181 3.79993e-05 42.1548 5970.55 7793.79 
529 1.0134 1.0134 0 0.000824939 0.000824939 -1.34772e-05 44.3198 5815.1 7926.8 
569 0.996 0.996 0 0.000733337 0.000733337 -6.58851e-06 43.5052 5455.54 7367.85 
609 0.941 0.941 0 0.000715693 0.000715693 2.14524e-06 40.9214 4774.47 6457.75 
649 0.4152 0.4152 0 0.000348428 0.000348428 -1.89163e-05 27.5254 3961.23 5211.48 
689 0.1378 0.1378 0 -0.000114523 -0.000114523 6.40725e-06 8.31503 1343.41 1789.92 
729 0.0508 0.0508 0 -0.000160152 -0.000160152 7.64326e-06 2.95931 389.3 578.013 
769 0.1248 0.1248 0 -0.000501526 -0.000501526 -7.45365e-06 5.01526 291.543 520.595 
809 0.1892 0.1892 0 -0.000797631 -0.000797631 8.2858e-06 7.97631 574.551 846.82 
849 0.2382 0.2382 0 -0.00103114 -0.00103114 -4.19995e-08 10.3114 858.222 1195.63 
889 0.2194 0.2194 0 -0.000935483 -0.000935483 9.77844e-07 9.35483 598.799 949.935 
929 0.1714 0.1714 0 -0.00072274 -0.00072274 -5.871e-06 7.2274 624.2 945.313 
969 0.0632 0.0632 0 -0.000234856 -0.000234856 -6.96904e-06 3.60169 278.074 412.261 
1009 0.0638 0.0638 0 -0.00011297 -0.00011297 -1.71274e-05 3.47495 465.401 667.721 
1049 0.2442 0.2442 0 -3.41187e-05 -3.41187e-05 2.69496e-05 15.1642 2602.84 3333 
1089 0.8626 0.8626 0 0.000787407 0.000787407 -1.33058e-05 38.081 4572.66 5974.6 
1129 0.9836 0.9836 0 0.000773055 0.000773055 -1.22715e-07 42.9599 5336.58 7249.84 
1169 0.9766 0.9766 0 0.000784271 0.000784271 -2.74233e-05 42.1476 5278.14 7178.93 
1209 1.0148 1.0148 0 0.000869818 0.000869818 -1.53927e-05 44.3755 5968.38 8033.56 
1249 1.0006 1.0006 0 0.00110776 0.00110776 -3.73223e-05 43.7699 6236.88 8250.2 
10 0.8644 0.8644 0 0.00163953 0.00163953 -4.17898e-05 57.6901 9474.17 12499.5 
50 2.2662 2.2662 0 0.00763789 0.00763789 7.65345e-05 152.378 20952.4 28594.8 
90 4.3654 4.3654 0 0.018436 0.018436 4.32565e-05 291.618 32769.9 45945.2 
130 9.4634 9.4634 0 0.0402758 0.0402758 -7.8535e-05 402.758 32924.3 45545.6 
170 10.3068 10.3068 0 0.043092 0.043092 -8.30311e-05 430.92 28554.1 39729.5 
210 10.6318 10.6318 0 0.0442975 0.0442975 1.63741e-06 442.975 28386.9 39321.7 
250 10.5986 10.5986 0 0.0441999 0.0441999 7.62799e-05 441.999 29417.2 41057.1 
290 10.0044 10.0044 0 0.0421049 0.0421049 9.73995e-05 421.049 31124.9 42735.5 
330 5.421 5.421 0 0.0233791 0.0233791 -9.60125e-05 356.894 33045.7 46768.6 
370 3.2424 3.2424 0 0.0127896 0.0127896 5.4672e-05 219.058 26165.4 36519.6 
410 1.4554 1.4554 0 0.00398014 0.00398014 -2.29046e-05 97.5196 13791.8 19162.7 
450 1.0422 1.0422 0 0.00126879 0.00126879 -3.64863e-05 45.273 6712.15 8852.54 
490 0.999 0.999 0 0.000898692 0.000898692 1.3976e-05 43.4371 6041.98 8057.44 
530 1.0206 1.0206 0 0.000829067 0.000829067 3.49242e-05 45.0573 5581.94 7618.68 
570 0.99 0.99 0 0.00078713 0.00078713 -2.85037e-05 43.3182 5227.6 7043.82 
610 0.9662 0.9662 0 0.000769181 0.000769181 7.08118e-05 42.0184 4822.63 6413.54 
650 0.4072 0.4072 0 0.000317686 0.000317686 5.87118e-06 27.475 3963.68 5453.44 
690 0.1396 0.1396 0 -0.000118788 -0.000118788 -1.76305e-05 8.41772 1441.93 1827.59 
730 0.0562 0.0562 0 -0.000176681 -0.000176681 -5.42021e-06 3.22837 372.995 548.532 
770 0.1252 0.1252 0 -0.000522227 -0.000522227 -6.08044e-06 5.22227 501.412 713.08 
810 0.185 0.185 0 -0.000775109 -0.000775109 -1.9202e-05 7.75109 639.656 927.169 
850 0.2218 0.2218 0 -0.000957427 -0.000957427 -7.88309e-06 9.57427 655.848 1038.53 
890 0.2232 0.2232 0 -0.000962437 -0.000962437 1.64989e-05 9.62437 805.995 1170.03 
930 0.1708 0.1708 0 -0.000719602 -0.000719602 4.00774e-07 7.19602 604.923 863.245 
970 0.059 0.059 0 -0.000223996 -0.000223996 9.48661e-07 3.47129 322.981 447.112 
1010 0.067 0.067 0 -0.000126982 -0.000126982 2.47989e-06 3.83653 596.212 775.235 
1050 0.2392 0.2392 0 -4.59988e-05 -4.59988e-05 -5.03613e-06 15.0345 2135.46 2822.36 
1090 0.8566 0.8566 0 0.000800336 0.000800336 2.64585e-05 37.3562 4656.95 6238.89 
1130 0.9774 0.9774 0 0.000716424 0.000716424 2.03758e-05 42.9811 4888.93 6673.56 
1170 0.9692 0.9692 0 0.000778753 0.000778753 8.84359e-06 42.9115 5284.78 7234.31 
1210 0.976 0.976 0 0.000836004 0.000836004 -3.72966e-05 42.7823 5852.76 7819.11 
1250 0.9968 0.9968 0 0.00106799 0.00106799 3.2179e-05 43.9853 6223.14 8292.45 
11 0.869 0.869 0 0.00171586 0.00171586 -1.66405e-05 57.3701 9237.95 12337 
51 2.252 2.252 0 0.00775541 0.00775541 -2.79053e-05 153.033 21194.6 29050.5 
91 4.385 4.385 0 0.0185344 0.0185344 3.0827e-05 292.666 31503.1 44608.2 
131 9.4924 9.4924 0 0.0404052 0.0404052 -4.93406e-05 404.052 32528.1 44948.1 
171 10.371 10.371 0 0.0434434 0.0434434 -8.96869e-05 434.434 29713.6 41176.3 
211 10.619 10.619 0 0.0442473 0.0442473 4.46207e-05 442.473 28572.6 38972.8 
251 10.4594 10.4594 0 0.0434698 0.0434698 -7.29415e-05 434.698 28802.5 39860.6 
291 10.0822 10.0822 0 0.0424034 0.0424034 4.75048e-06 424.034 31146.2 43299.9 
331 5.4264 5.4264 0 0.0234255 0.0234255 -6.86009e-05 357.848 35260.1 50051.2 
371 3.2076 3.2076 0 0.0125998 0.0125998 5.20892e-05 216.865 28160.5 39025.4 
411 1.4348 1.4348 0 0.00390121 0.00390121 -3.52099e-05 96.2472 13845.3 18660.1 
451 1.0282 1.0282 0 0.00127411 0.00127411 8.68559e-06 44.236 6734.63 8840.62 
491 1.0114 1.0114 0 0.000992858 0.000992858 7.40743e-06 44.4459 5913.45 8074.98 
531 0.9866 0.9866 0 0.000862957 0.000862957 8.72007e-06 43.2643 5445.49 7499.27 
571 0.9936 0.9936 0 0.000792446 0.000792446 7.58267e-06 43.2055 5173.24 7061.61 
611 0.9536 0.9536 0 0.000765557 0.000765557 2.27744e-05 41.6586 4913.42 6587.05 
651 0.4198 0.4198 0 0.000289935 0.000289935 -2.19518e-05 27.1013 4030.53 5202.72 
691 0.1302 0.1302 0 -0.000117716 -0.000117716 5.43371e-06 7.81816 1305.34 1667.47 
731 0.048 0.048 0 -0.000155822 -0.000155822 -7.95319e-06 2.78286 315.255 518.81 
771 0.132 0.132 0 -0.000547714 -0.000547714 1.00733e-05 5.47714 397.073 650.562 
811 0.1886 0.1886 0 -0.000794753 -0.000794753 5.91755e-07 7.94753 564.507 855.569 
851 0.2212 0.2212 0 -0.000949995 -0.000949995 -3.28033e-06 9.49995 729.901 1100.48 
891 0.2034 0.2034 0 -0.000851922 -0.000851922 -1.63246e-05 8.51922 614.987 947.348 
931 0.157 0.157 0 -0.000671315 -0.000671315 7.94417e-06 6.71315 574.41 777.529 
971 0.0578 0.0578 0 -0.000225245 -0.000225245 -8.22998e-06 3.47868 373.675 528.017 
1011 0.0766 0.0766 0 -0.000145151 -0.000145151 1.62777e-05 4.45179 739.689 874.875 
1051 0.2328 0.2328 0 3.11999e-05 3.11999e-05 -9.74212e-06 14.5443 2636.48 3414.53 
1091 0.8746 0.8746 0 0.000836212 0.000836212 -1.74906e-06 38.0498 4646.29 6280.19 
1131 0.9858 0.9858 0 0.000763462 0.000763462 6.8244e-07 42.9221 5009.73 6964.23 
1171 1.006 1.006 0 0.000783162 0.000783162 -3.45608e-05 44.2419 5528.82 7447.43 
1211 1.0164 1.0164 0 0.000822094 0.000822094 -3.85403e-06 44.16 5376.03 7318.54 
1251 1.0044 1.0044 0 0.00103706 0.00103706 9.70126e-06 43.8534 6191.5 8362.23 
12 0.9022 0.9022 0 0.00178606 0.00178606 -9.87501e-07 59.9829 9148.68 12345.5 
52 2.29 2.29 0 0.00783514 0.00783514 -1.69248e-05 154.328 20130.2 27922.6 
92 4.4738 4.4738 0 0.0189125 0.0189125 7.58575e-05 298.055 32660.4 45568.1 
132 9.6056 9.6056 0 0.0407021 0.0407021 1.86901e-05 407.021 33598.4 46346.7 
172 10.4136 10.4136 0 0.0434102 0.0434102 -5.22711e-05 434.102 29912 41113.2 
212 10.6138 10.6138 0 0.0440987 0.0440987 9.68942e-05 440.987 29126.8 40225.7 
252 10.5228 10.5228 0 0.0437674 0.0437674 0.000145099 437.674 28754.1 39960.3 
292 9.9466 9.9466 0 0.0416854 0.0416854 0.000102736 416.854 30333.3 41822.5 
332 5.3272 5.3272 0 0.0229298 0.0229298 -0.000120488 350.558 33684.4 47440.3 
372 3.1996 3.1996 0 0.0123222 0.0123222 -8.86734e-05 214.023 25266.3 35575.1 
412 1.4004 1.4004 0 0.00372275 0.00372275 6.71472e-05 93.3476 14267 18983.3 
452 1.0386 1.0386 0 0.00127962 0.00127962 3.72122e-05 44.9467 6598 8930.05 
492 0.9912 0.9912 0 0.0010098 0.0010098 -2.779e-05 43.0447 5977.05 7838.31 
532 1.0112 1.0112 0 0.000874619 0.000874619 -3.63833e-05 43.8831 5564.77 7600.44 
572 0.9854 0.9854 0 0.000683084 0.000683084 -2.88429e-05 42.9849 5038.67 7086.39 
612 0.9488 0.9488 0 0.00076962 0.00076962 -2.33011e-05 41.2449 4862.83 6554.98 
652 0.4136 0.4136 0 0.000285081 0.000285081 -1.1822e-05 26.8966 3940 5114.88 
692 0.1284 0.1284 0 -0.000109248 -0.000109248 -1.87301e-06 7.50608 1318.7 1700.36 
732 0.0502 0.0502 0 -0.000155355 -0.000155355 -4.47953e-06 2.82331 357.527 501.132 
772 0.1286 0.1286 0 -0.000541653 -0.000541653 -6.77667e-07 5.41653 457.708 696.604 
812 0.1936 0.1936 0 -0.000834644 -0.000834644 -1.15201e-05 8.34644 574.761 840.55 