ITEM: TIMESTEP
25000
ITEM: NUMBER OF SURFS
1000
ITEM: BOX BOUNDS oo rr pp
0 0.3
0 0.3
-0.5 0.5
ITEM: SURFS id f_4[1] f_4[2] f_4[3] f_4[4] f_4[5] f_4[6] f_4[7] f_4[8] f_4[9] 
1 1.1178 1.1178 0 0.00131181 0.00131181 3.43947e-06 50.8922 6829.49 9069.14 
41 2.071 2.071 0 0.00401381 0.00401381 4.50717e-05 94.4109 10732.2 14690.1 
81 3.5262 3.5262 0 0.00970406 0.00970406 1.44826e-05 162.793 18628.2 25309.7 
121 5.3556 5.3556 0 0.0181158 0.0181158 -7.45877e-05 247.467 26414.4 36589.1 
161 7.1918 7.1918 0 0.0276636 0.0276636 -6.88494e-05 330.629 32030.8 45113.4 
201 8.8438 8.8438 0 0.0369666 0.0369666 -6.2174e-05 406.42 38326.6 54280.8 
241 9.5824 9.5824 0 0.0416063 0.0416063 0.000117906 442.016 42843.2 60827.4 
281 9.1558 9.1558 0 0.0394467 0.0394467 7.32833e-05 424.514 43446.6 60374.1 
321 7.9294 7.9294 0 0.0320809 0.0320809 -0.000130138 366.111 37107.2 52165.6 
361 6.1824 6.1824 0 0.0220282 0.0220282 -3.60613e-05 283.144 27701.8 38486.2 
401 4.2232 4.2232 0 0.0124649 0.0124649 -4.10686e-05 193.285 20094.6 27757.2 
441 2.6434 2.6434 0 0.00600809 0.00600809 -4.84561e-05 120.702 13824.3 18842.2 
481 1.4882 1.4882 0 0.00219538 0.00219538 -5.09199e-05 68.2585 8121.27 10898.1 
521 0.793 0.793 0 0.000583835 0.000583835 2.27666e-06 35.3836 4815.48 6235.35 
561 0.3892 0.3892 0 -5.5795e-05 -5.5795e-05 7.73534e-06 17.0871 2360.36 2985.53 
601 0.1698 0.1698 0 -0.000134763 -0.000134763 -5.76912e-06 6.93638 1322.04 1521.39 
641 0.0996 0.0996 0 -0.000175087 -0.000175087 1.92351e-05 3.95818 665.281 789.857 
681 0.1182 0.1182 0 -0.000411338 -0.000411338 -1.86143e-06 5.06165 517.69 762.156 
721 0.211 0.211 0 -0.000894502 -0.000894502 1.59022e-05 9.58933 1079.73 1464.56 
761 0.2214 0.2214 0 -0.000927017 -0.000927017 -2.29878e-05 9.85348 1043.72 1482.23 
801 0.1632 0.1632 0 -0.000632644 -0.000632644 -9.76212e-06 7.13966 560.513 884.408 
841 0.0974 0.0974 0 -0.000264221 -0.000264221 1.31127e-05 4.12468 514.975 650.869 
881 0.134 0.134 0 -0.00016692 -0.00016692 -2.47467e-06 5.33297 921.412 1156.42 
921 0.2738 0.2738 0 -8.417e-05 -8.417e-05 3.27758e-05 11.778 1912.88 2380.41 
961 0.573 0.573 0 0.000244434 0.000244434 -1.59164e-05 25.6311 3990.98 5176.58 
2 1.162 1.162 0 0.00131234 0.00131234 -1.85388e-06 52.7535 6402.63 8678.04 
42 2.0986 2.0986 0 0.00402865 0.00402865 1.77159e-05 95.7525 10917.2 14732.5 
82 3.4444 3.4444 0 0.00925006 0.00925006 -4.1663e-05 158.284 16525.2 23261.6 
122 5.3012 5.3012 0 0.0177427 0.0177427 -8.20682e-06 243.852 24471.3 34581.9 
162 7.192 7.192 0 0.0280158 0.0280158 8.43277e-05 332.329 33709.1 47165 
202 8.8496 8.8496 0 0.0369808 0.0369808 2.92604e-05 405.346 37837.1 54104.5 
242 9.6286 9.6286 0 0.0415722 0.0415722 -0.000112288 441.404 41721.8 59326.4 
282 9.2434 9.2434 0 0.0396741 0.0396741 -6.14244e-05 427.498 42714.4 60193.8 
322 8.009 8.009 0 0.0320494 0.0320494 -8.17604e-05 367.127 36277.2 51270.4 
362 5.9576 5.9576 0 0.0214065 0.0214065 -2.68736e-05 275.343 27944.2 39409.2 
402 4.0974 4.0974 0 0.0120549 0.0120549 -3.93066e-05 187.736 20284.5 28167.4 
442 2.5558 2.5558 0 0.00565377 0.00565377 -2.73982e-06 116.872 12831.1 17558 
482 1.4678 1.4678 0 0.00212106 0.00212106 -1.92167e-07 66.6378 7910.74 10679.3 
522 0.7566 0.7566 0 0.000464374 0.000464374 2.17338e-05 34.279 4540.35 5869.68 
562 0.3836 0.3836 0 -8.77263e-06 -8.77263e-06 2.05501e-05 16.4981 2678.07 3341.15 
602 0.1652 0.1652 0 -0.000119921 -0.000119921 4.2518e-06 6.76547 1251.83 1550.81 
642 0.0964 0.0964 0 -0.000179624 -0.000179624 -3.96043e-06 3.7508 675.83 861.291 
682 0.1216 0.1216 0 -0.000441432 -0.000441432 4.70199e-06 5.31276 593.024 802.247 
722 0.1964 0.1964 0 -0.000816822 -0.000816822 1.25552e-05 8.76482 638.497 997.911 
762 0.201 0.201 0 -0.000851328 -0.000851328 -1.6751e-05 9.0602 699.117 985.416 
802 0.1536 0.1536 0 -0.000596952 -0.000596952 5.81752e-06 6.75148 588.324 821.982 
842 0.0976 0.0976 0 -0.000241192 -0.000241192 1.17942e-07 3.9932 552.428 709.164 
882 0.1412 0.1412 0 -0.00016212 -0.00016212 1.17698e-05 5.78494 980.488 1204.15 
922 0.2912 0.2912 0 -8.14185e-05 -8.14185e-05 -4.53683e-06 12.6036 2015.12 2423.51 
962 0.5824 0.5824 0 0.000241493 0.000241493 1.00394e-05 25.6978 3824.23 4892.74 
3 1.1702 1.1702 0 0.00142125 0.00142125 -2.5406e-05 53.29 6880.98 9389.53 
43 2.128 2.128 0 0.00420608 0.00420608 -1.49638e-05 97.152 11035.7 15211.7 
83 3.5324 3.5324 0 0.00957012 0.00957012 -0.00010643 162.004 17204.3 23603.6 
123 5.4578 5.4578 0 0.0185863 0.0185863 4.11446e-05 251.722 26990.3 36983.5 
163 7.3346 7.3346 0 0.0282603 0.0282603 6.79769e-05 336.129 30627.4 43236.3 
203 8.8548 8.8548 0 0.0370946 0.0370946 1.81915e-05 406.156 38948.3 54854.6 
243 9.5964 9.5964 0 0.0416216 0.0416216 7.12598e-05 441.877 43720.4 62204.6 
283 9.2534 9.2534 0 0.0392848 0.0392848 1.40509e-05 423.368 38722.2 55128.6 
323 7.9628 7.9628 0 0.0317104 0.0317104 5.24543e-05 364.615 33712.6 47979 
363 6.115 6.115 0 0.021675 0.021675 4.30423e-05 280.05 28160.3 39280.5 
403 4.1548 4.1548 0 0.0122679 0.0122679 8.62912e-05 191.141 20935.4 29055.5 
443 2.497 2.497 0 0.00552019 0.00552019 6.51146e-05 115.496 13467.4 18390.9 
483 1.4236 1.4236 0 0.00203314 0.00203314 6.62445e-06 64.6611 7886.81 10573.9 
523 0.7486 0.7486 0 0.000502154 0.000502154 -3.22977e-05 33.4586 4502.59 5804.76 
563 0.3708 0.3708 0 -1.66382e-05 -1.66382e-05 -3.66822e-05 16.0735 2641.93 3286.12 
603 0.1726 0.1726 0 -0.000131457 -0.000131457 -4.0806e-06 7.12573 1214.4 1487.89 
643 0.0932 0.0932 0 -0.000181376 -0.000181376 -2.72971e-06 3.79862 529.844 712.596 
683 0.1224 0.1224 0 -0.000447958 -0.000447958 1.9788e-06 5.35578 501.034 733.359 
723 0.1876 0.1876 0 -0.000765688 -0.000765688 -2.24532e-05 8.23356 869.11 1175.4 
763 0.2006 0.2006 0 -0.000854 -0.000854 -6.52081e-06 9.07743 825.54 1183.59 
803 0.157 0.157 0 -0.00062238 -0.00062238 -5.25761e-07 6.94105 570.102 934.388 
843 0.1054 0.1054 0 -0.000276159 -0.000276159 -2.04793e-05 4.3647 524.876 633.849 
883 0.1396 0.1396 0 -0.000158146 -0.000158146 3.43501e-06 5.67219 982.565 1254.89 
923 0.2888 0.2888 0 -7.60021e-05 -7.60021e-05 1.46807e-05 12.1336 2027.67 2510.64 
963 0.6088 0.6088 0 0.000242934 0.000242934 1.00727e-05 27.5192 3991.61 5097.23 
4 1.1852 1.1852 0 0.00145698 0.00145698 3.1485e-05 54.5558 7203.82 9359.27 
44 2.1802 2.1802 0 0.00439668 0.00439668 -2.55883e-05 100.088 11936 16046.2 
84 3.7056 3.7056 0 0.0101717 0.0101717 -6.09075e-05 170.369 18228 25577.8 
124 5.3466 5.3466 0 0.0181519 0.0181519 9.69975e-05 246.241 24684.4 34514.9 
164 7.3486 7.3486 0 0.0288008 0.0288008 2.52897e-06 340.57 35413.4 49559.8 
204 8.878 8.878 0 0.0378579 0.0378579 0.000107994 413.541 42459.1 59229.4 
244 9.6344 9.6344 0 0.0418311 0.0418311 5.60105e-05 444.026 42735.1 60065.2 
284 9.2748 9.2748 0 0.0393577 0.0393577 -2.87169e-05 425.068 38821.2 55497.5 
324 7.7634 7.7634 0 0.0313415 0.0313415 -0.000130673 361.009 36839 51411.5 
364 5.7858 5.7858 0 0.0204983 0.0204983 5.2171e-05 266.8 26907.5 37872.5 
404 4.0666 4.0666 0 0.0117982 0.0117982 7.15537e-06 186.117 18816.2 26822 
444 2.4802 2.4802 0 0.00549633 0.00549633 -3.25804e-05 114.775 13238.2 17995.6 
484 1.4398 1.4398 0 0.00204918 0.00204918 -1.11771e-05 66.1809 8192.57 10799.1 
524 0.7224 0.7224 0 0.000467824 0.000467824 2.63371e-05 32.64 4424.72 5924.06 
564 0.3544 0.3544 0 -5.1025e-05 -5.1025e-05 -1.04022e-05 15.5469 2379.9 3004.48 
604 0.1696 0.1696 0 -0.000142098 -0.000142098 2.65662e-05 7.02911 1103.05 1412.5 
644 0.0952 0.0952 0 -0.000185874 -0.000185874 5.73455e-06 3.8779 574.484 717.91 
684 0.1258 0.1258 0 -0.000457913 -0.000457913 -7.10644e-06 5.52959 639.261 859.298 
724 0.1958 0.1958 0 -0.000832315 -0.000832315 -1.55159e-05 8.91736 744.859 1037.92 
764 0.2094 0.2094 0 -0.000901098 -0.000901098 -3.66309e-06 9.59387 831.212 1150.89 
804 0.156 0.156 0 -0.000593222 -0.000593222 -5.68157e-06 6.70372 464.118 699.735 
844 0.0902 0.0902 0 -0.000236759 -0.000236759 1.25587e-05 3.78195 467.941 608.178 
884 0.1246 0.1246 0 -0.000125576 -0.000125576 -1.17494e-05 4.98077 781.055 1006.63 
924 0.296 0.296 0 -6.28366e-05 -6.28366e-05 -8.81717e-06 12.7094 2298.2 2740.84 
964 0.629 0.629 0 0.000262199 0.000262199 8.78432e-06 27.9276 3918.49 5073.58 
5 1.21 1.21 0 0.00153894 0.00153894 -1.22359e-05 55.2878 7145.21 9535.36 
45 2.2142 2.2142 0 0.00453105 0.00453105 -2.11906e-05 102.215 11272.8 15281.5 
85 3.5782 3.5782 0 0.0098034 0.0098034 4.18058e-05 164.779 17582.2 24346 
125 5.512 5.512 0 0.0186813 0.0186813 -9.23291e-05 253.987 25907 36439.4 
165 7.3362 7.3362 0 0.0285871 0.0285871 -8.66478e-05 337.516 33534.9 47447.7 
205 8.8732 8.8732 0 0.0376886 0.0376886 -8.5425e-06 411.703 41064.8 57407.3 
245 9.5552 9.5552 0 0.0415691 0.0415691 9.31464e-06 441.207 44494.7 61683.3 
285 9.1784 9.1784 0 0.0390983 0.0390983 -0.000122647 422.37 39153.4 55353.2 
325 7.7684 7.7684 0 0.0309831 0.0309831 9.32144e-05 358.105 36526.2 50909.2 
365 5.9936 5.9936 0 0.0212116 0.0212116 -0.00013088 275.65 27672.4 39110 
405 3.9852 3.9852 0 0.0115198 0.0115198 -4.41262e-05 183.112 19215.2 26984.2 
445 2.4684 2.4684 0 0.00547015 0.00547015 7.30557e-05 113.703 13437.6 18409.6 
485 1.3986 1.3986 0 0.0019388 0.0019388 -1.39244e-05 63.6612 7776.13 10394.3 
525 0.7158 0.7158 0 0.000510021 0.000510021 3.09008e-05 31.8502 4567.91 5814.29 
565 0.3456 0.3456 0 -2.03202e-05 -2.03202e-05 -1.28248e-06 15.032 2323.04 2812.94 
605 0.1724 0.1724 0 -0.000129052 -0.000129052 7.6314e-07 7.13138 1375.71 1640.55 
645 0.094 0.094 0 -0.000189726 -0.000189726 -9.6483e-06 3.79473 603.97 739.551 
685 0.1314 0.1314 0 -0.00046527 -0.00046527 -2.08578e-06 5.57338 544.367 758.009 
725 0.1954 0.1954 0 -0.000832669 -0.000832669 1.29038e-05 8.91761 695.02 1008.17 
765 0.1988 0.1988 0 -0.000835709 -0.000835709 -9.85224e-06 8.87483 623.749 946.673 
805 0.154 0.154 0 -0.000596525 -0.000596525 6.65779e-06 6.73334 501.582 750.965 
845 0.1022 0.1022 0 -0.000266355 -0.000266355 5.69772e-06 4.23415 616.386 841.674 
885 0.1418 0.1418 0 -0.000156032 -0.000156032 9.91384e-07 5.76325 1053.49 1254.21 
925 0.3044 0.3044 0 -0.000105222 -0.000105222 -1.21825e-05 13.2014 2045.04 2691.47 
965 0.6092 0.6092 0 0.000324251 0.000324251 -4.03817e-05 26.6794 3978.06 5169.87 
6 1.2032 1.2032 0 0.00146507 0.00146507 -3.71867e-05 54.1298 6886.68 9244.47 
46 2.2538 2.2538 0 0.00448114 0.00448114 3.70752e-05 103.794 11889 16290.6 
86 3.6398 3.6398 0 0.0099661 0.0099661 4.05976e-05 164.985 17221.4 23960.4 
126 5.4552 5.4552 0 0.0188783 0.0188783 -2.05227e-05 253.811 26953 37437.8 
166 7.511 7.511 0 0.0291677 0.0291677 8.5756e-05 343.776 33510.9 46894.3 
206 8.884 8.884 0 0.0375863 0.0375863 -5.74332e-06 409.66 39422.8 55216.7 
246 9.5632 9.5632 0 0.0417262 0.0417262 1.32046e-05 442.804 44268.8 62229.1 
286 9.1672 9.1672 0 0.0387258 0.0387258 -4.52399e-05 419.251 39899.1 56216.3 
326 7.7812 7.7812 0 0.0309488 0.0309488 -4.93813e-06 358.59 33554.6 47373.2 
366 5.7596 5.7596 0 0.0201973 0.0201973 1.68813e-05 264.597 26948.6 37643.3 
406 3.9704 3.9704 0 0.0115611 0.0115611 1.89404e-05 182.248 19443.7 26832.7 
446 2.4208 2.4208 0 0.00539492 0.00539492 -6.54097e-05 111.089 12905.5 17519.3 
486 1.3934 1.3934 0 0.00188196 0.00188196 3.08883e-05 63.4318 8188.3 10761.7 
526 0.7352 0.7352 0 0.000415382 0.000415382 -1.18333e-05 33.1948 4467.82 5939.21 
566 0.3556 0.3556 0 -9.27881e-05 -9.27881e-05 2.3293e-06 15.5724 2208.13 2738.8 
606 0.1532 0.1532 0 -0.000135354 -0.000135354 3.06959e-05 6.28808 1001.26 1229.17 
646 0.0952 0.0952 0 -0.000196311 -0.000196311 -8.37802e-06 3.91491 578.667 697.434 
686 0.142 0.142 0 -0.000511613 -0.000511613 7.40763e-06 6.01078 437.523 697.259 
726 0.1996 0.1996 0 -0.0008531 -0.0008531 2.34899e-06 9.15544 904.115 1238.56 
766 0.212 0.212 0 -0.00091465 -0.00091465 1.14323e-05 9.72064 1095.99 1362.23 
806 0.1506 0.1506 0 -0.000579158 -0.000579158 -1.66583e-05 6.65377 646.132 916.002 
846 0.0952 0.0952 0 -0.000231342 -0.000231342 -1.01826e-05 3.88523 570.513 706.259 
886 0.135 0.135 0 -0.000145053 -0.000145053 -4.75035e-06 5.57506 977.035 1186.59 
926 0.2924 0.2924 0 -5.32612e-05 -5.32612e-05 1.64752e-05 12.5628 2159.75 2609.7 
966 0.6448 0.6448 0 0.00026098 0.00026098 3.05874e-07 28.7746 4126.67 5274.74 
7 1.2788 1.2788 0 0.00164594 0.00164594 -5.06433e-05 57.9698 7276.29 9795.77 
47 2.2412 2.2412 0 0.00458333 0.00458333 9.66824e-06 102.802 11631.5 16051.7 
87 3.7532 3.7532 0 0.0104587 0.0104587 6.08039e-05 171.432 18593 25667.8 
127 5.6196 5.6196 0 0.0192325 0.0192325 5.3206e-05 258.173 25949.3 35864.6 
167 7.5944 7.5944 0 0.0296874 0.0296874 3.06227e-05 348.455 33936.4 47293.9 
207 9.0436 9.0436 0 0.0381654 0.0381654 5.11239e-05 416.201 38680.7 55275.4 
247 9.5362 9.5362 0 0.0414161 0.0414161 -7.1149e-05 439.473 43578 61038.4 
287 9.2272 9.2272 0 0.0392772 0.0392772 3.44617e-08 425.591 42618.1 59682 
327 7.6278 7.6278 0 0.0301594 0.0301594 1.50436e-05 349.98 34434.9 48657.7 
367 5.8382 5.8382 0 0.0205686 0.0205686 2.93654e-05 269.792 27940 39022.6 
407 3.9876 3.9876 0 0.0112743 0.0112743 9.76478e-05 181.248 18643.3 26329.5 
447 2.3882 2.3882 0 0.0050722 0.0050722 -2.1612e-05 109.427 11843.1 16542.2 
487 1.3696 1.3696 0 0.0018442 0.0018442 5.59155e-05 62.0744 7659.92 10169.2 
527 0.7022 0.7022 0 0.000395157 0.000395157 2.09798e-05 31.3118 4478.72 5720.67 
567 0.326 0.326 0 -6.49098e-05 -6.49098e-05 1.50284e-05 14.3439 2226.12 2743.25 
607 0.1578 0.1578 0 -0.000131114 -0.000131114 -1.11453e-05 6.57406 1136.67 1434.71 
647 0.0968 0.0968 0 -0.000213975 -0.000213975 7.69219e-06 3.92691 535.582 681.532 
687 0.1308 0.1308 0 -0.000476019 -0.000476019 -1.38311e-05 5.59818 565.332 847.047 
727 0.2012 0.2012 0 -0.000830444 -0.000830444 -3.97204e-06 8.86201 826.833 1240.52 
767 0.2064 0.2064 0 -0.000871974 -0.000871974 1.66366e-05 9.32768 715.606 1080.97 
807 0.1512 0.1512 0 -0.000575229 -0.000575229 -3.17895e-06 6.58088 594.295 855.333 
847 0.0982 0.0982 0 -0.000234112 -0.000234112 -2.4261e-06 3.95581 452.644 601.671 
887 0.1422 0.1422 0 -0.000148225 -0.000148225 9.00266e-06 5.82255 1045.21 1260.33 
927 0.3044 0.3044 0 -7.38401e-05 -7.38401e-05 -6.16653e-06 13.112 2106.04 2664.51 
967 0.6654 0.6654 0 0.00032739 0.00032739 1.88178e-05 29.7549 4255.6 5554.08 
8 1.2932 1.2932 0 0.00173155 0.00173155 -1.03531e-05 59.1561 7702.09 10438.8 
48 2.2468 2.2468 0 0.00470075 0.00470075 -4.64403e-06 103.619 11799.6 16275 
88 3.7096 3.7096 0 0.0104287 0.0104287 4.6763e-06 170.511 18204.4 25458.3 
128 5.6318 5.6318 0 0.0195865 0.0195865 -3.49178e-05 260.316 28012.3 39047.3 
168 7.4582 7.4582 0 0.029512 0.029512 0.000159146 344.789 35268.1 49060.6 
208 9.0786 9.0786 0 0.0381474 0.0381474 -4.79396e-05 415.029 37633.9 53932.6 
248 9.6124 9.6124 0 0.0419094 0.0419094 -5.48707e-05 444.699 45810.4 63011.9 
288 8.9614 8.9614 0 0.0383871 0.0383871 -0.000120768 415.763 42944.7 59764.1 
328 7.6464 7.6464 0 0.0305024 0.0305024 -2.12318e-05 353.955 37154.7 51360.3 
368 5.763 5.763 0 0.019942 0.019942 1.29895e-05 264.126 26024.2 36757.2 
408 3.837 3.837 0 0.0110288 0.0110288 -4.31992e-06 176.96 19327.7 26463.9 
448 2.389 2.389 0 0.00509156 0.00509156 1.06132e-05 111.135 12328.5 17063 
488 1.3312 1.3312 0 0.00178666 0.00178666 5.04287e-05 60.7805 7374.09 9937.08 
528 0.6964 0.6964 0 0.000422356 0.000422356 1.59559e-05 31.2295 4246.78 5529.56 
568 0.3354 0.3354 0 -3.52097e-05 -3.52097e-05 -4.04495e-05 14.4124 2163.49 2815.32 
608 0.1462 0.1462 0 -0.000149645 -0.000149645 6.11653e-06 5.88329 912.877 1041.97 
648 0.095 0.095 0 -0.000196721 -0.000196721 -8.28761e-06 3.70356 530.366 707.955 
688 0.1356 0.1356 0 -0.000492205 -0.000492205 -6.09349e-06 5.74936 542.913 780.358 
728 0.2106 0.2106 0 -0.000893713 -0.000893713 6.00869e-06 9.55996 860.136 1254.3 
768 0.2108 0.2108 0 -0.000895006 -0.000895006 4.02972e-06 9.53794 741.352 1108.08 
808 0.153 0.153 0 -0.000566866 -0.000566866 6.86189e-06 6.50334 675.54 976.658 
848 0.0948 0.0948 0 -0.000213926 -0.000213926 -2.10843e-06 3.82429 612.563 735.634 
888 0.1494 0.1494 0 -0.000144892 -0.000144892 -6.90888e-06 6.15162 1022.44 1269.31 
928 0.312 0.312 0 -8.15249e-05 -8.15249e-05 -2.46515e-06 13.5811 2036.69 2671.84 
968 0.6544 0.6544 0 0.00036366 0.00036366 2.11812e-05 29.3024 4216.31 5558.64 
9 1.2854 1.2854 0 0.00175366 0.00175366 1.58555e-05 58.1745 7646.03 10158.4 
49 2.2954 2.2954 0 0.00482977 0.00482977 8.01131e-05 105.705 12074.3 16480.3 
89 3.7854 3.7854 0 0.0106196 0.0106196 4.08257e-05 173.243 17910.2 25184.6 
129 5.6948 5.6948 0 0.0195296 0.0195296 7.69957e-05 260.346 25553.9 35843.6 
169 7.6578 7.6578 0 0.0299392 0.0299392 -6.12978e-05 348.781 33014.4 46996.9 
209 9.0842 9.0842 0 0.0382637 0.0382637 -4.29279e-05 416.035 39480 56408 
249 9.5432 9.5432 0 0.0415215 0.0415215 8.59194e-05 440.556 44950.9 62383.9 
289 9.1346 9.1346 0 0.0388264 0.0388264 -1.18644e-06 421.375 41407.2 58451.8 
329 7.662 7.662 0 0.0300789 0.0300789 -6.02492e-05 351.395 33302.2 47493.6 
369 5.6936 5.6936 0 0.0199414 0.0199414 -5.0674e-06 262.881 27741.2 38266.8 
409 3.9202 3.9202 0 0.0111452 0.0111452 1.5457e-05 179.68 19657.1 27276.3 
449 2.3764 2.3764 0 0.00501827 0.00501827 5.00309e-05 108.867 12792.7 17412.9 
489 1.3094 1.3094 0 0.00174928 0.00174928 -3.56461e-05 59.8731 7462.52 9758.5 
529 0.679 0.679 0 0.000368713 0.000368713 1.12336e-05 30.7115 4066.92 5216.76 
569 0.327 0.327 0 -4.65952e-05 -4.65952e-05 1.54572e-06 14.3729 2260.11 2846.18 
609 0.1522 0.1522 0 -0.000153816 -0.000153816 -3.17131e-06 6.27324 990.675 1217.32 
649 0.095 0.095 0 -0.000216596 -0.000216596 3.29916e-06 3.75551 607.561 723.533 
689 0.1402 0.1402 0 -0.00049828 -0.00049828 -1.45141e-05 5.8555 616.084 895.198 
729 0.2102 0.2102 0 -0.000907124 -0.000907124 -3.98754e-06 9.67204 767.209 1157.04 
769 0.2122 0.2122 0 -0.000904236 -0.000904236 2.30844e-05 9.65481 851.102 1181.26 
809 0.1462 0.1462 0 -0.000545443 -0.000545443 1.60726e-05 6.31918 640.383 906.976 
849 0.093 0.093 0 -0.00021972 -0.00021972 2.9333e-06 3.7139 534.905 716.06 
889 0.1476 0.1476 0 -0.000145902 -0.000145902 -3.10501e-06 6.17017 1057.02 1341.11 
929 0.3312 0.3312 0 -7.25961e-05 -7.25961e-05 -2.67678e-05 14.4087 2400.36 2966.21 
969 0.6648 0.6648 0 0.000312203 0.000312203 6.16249e-06 30.066 3948.13 5135.22 
10 1.3076 1.3076 0 0.00171126 0.00171126 -2.87253e-05 59.7689 7358.65 9982.64 
50 2.3268 2.3268 0 0.00504046 0.00504046 -2.9129e-05 107.911 12504.6 16721.4 
90 3.9374 3.9374 0 0.0113254 0.0113254 -9.59098e-05 181.433 19433.9 26530.5 
130 5.6916 5.6916 0 0.0199179 0.0199179 1.89495e-05 263.066 27903.9 38660.9 
170 7.7342 7.7342 0 0.0301762 0.0301762 -1.40535e-05 352.317 33289.9 47580.9 
210 9.2088 9.2088 0 0.039127 0.039127 8.28542e-06 424.55 42428.6 59098.3 
250 9.5856 9.5856 0 0.0418216 0.0418216 -8.7731e-05 443.747 46488.5 64581.1 
290 9.067 9.067 0 0.0380933 0.0380933 7.44711e-05 414.201 37324.5 53482 
330 7.648 7.648 0 0.0301664 0.0301664 2.16238e-05 351.24 33868.5 47416.2 
370 5.6818 5.6818 0 0.0196261 0.0196261 0.000151563 261.061 25140.3 35461.5 
410 3.7796 3.7796 0 0.0105952 0.0105952 7.44394e-05 172.866 18572.3 25622.8 
450 2.3118 2.3118 0 0.00480158 0.00480158 -6.18425e-05 106.385 11961.6 16621.3 
490 1.3102 1.3102 0 0.00172712 0.00172712 5.82354e-05 59.783 7577.21 10082.3 
530 0.6524 0.6524 0 0.000327693 0.000327693 4.13332e-06 29.5309 4198.94 5422.3 
570 0.3116 0.3116 0 -6.53876e-05 -6.53876e-05 -1.93012e-05 13.4809 2253.44 2872.92 
610 0.1528 0.1528 0 -0.000162696 -0.000162696 -1.92633e-05 6.42991 1129.31 1365.23 
650 0.0994 0.0994 0 -0.00024232 -0.00024232 1.75957e-05 4.06579 574.094 756.834 
690 0.1376 0.1376 0 -0.000511427 -0.000511427 -1.95631e-05 5.90336 507.933 798.547 
730 0.2114 0.2114 0 -0.000896215 -0.000896215 2.84692e-06 9.57287 942.312 1385.49 
770 0.2016 0.2016 0 -0.000839907 -0.000839907 2.47701e-05 8.95007 625.803 1004.44 
810 0.1412 0.1412 0 -0.000535559 -0.000535559 1.23179e-05 6.27948 652.41 945.531 
850 0.1028 0.1028 0 -0.000235582 -0.000235582 -2.00272e-05 4.19568 678.308 839.069 
890 0.149 0.149 0 -0.000141541 -0.000141541 -1.16834e-05 6.0679 986.965 1112.09 
930 0.3346 0.3346 0 -3.80612e-05 -3.80612e-05 -8.77887e-06 14.4206 2559.47 3098.04 
970 0.684 0.684 0 0.000345661 0.000345661 1.52384e-05 30.7028 4272.88 5388.11 
11 1.307 1.307 0 0.00171738 0.00171738 2.1414e-05 59.0414 7567.98 10021.3 
51 2.3452 2.3452 0 0.00499129 0.00499129 1.81653e-05 108.036 11991.5 16579.8 
91 3.8792 3.8792 0 0.0111051 0.0111051 3.52655e-05 179.102 19667.5 27181.9 
131 5.768 5.768 0 0.0198864 0.0198864 -8.15524e-05 263.855 25923.2 36796.6 
171 7.6796 7.6796 0 0.0304938 0.0304938 -1.86064e-05 354.517 36177.4 50468.2 
211 9.0348 9.0348 0 0.0386834 0.0386834 -7.09395e-05 418.866 43429 60088.9 
251 9.5756 9.5756 0 0.0418126 0.0418126 0.000110221 443.652 44908.7 62676.4 
291 9.0746 9.0746 0 0.0380488 0.0380488 0.000155444 414.47 37839.6 53759.7 
331 7.4596 7.4596 0 0.0294985 0.0294985 -5.91253e-06 344.913 35494.3 49434.1 
371 5.5896 5.5896 0 0.019332 0.019332 -2.10207e-06 257.854 27625.9 38169.4 
411 3.785 3.785 0 0.0105333 0.0105333 -3.0823e-05 174.286 18402.4 25263.2 
451 2.2376 2.2376 0 0.00470132 0.00470132 -4.71824e-05 102.128 11937.8 16327.9 
491 1.266 1.266 0 0.00165932 0.00165932 -6.39268e-05 57.1945 7336.51 9687.73 
531 0.6516 0.6516 0 0.000347878 0.000347878 -5.67509e-06 29.0211 4024.42 5362.76 
571 0.3034 0.3034 0 -9.08839e-05 -9.08839e-05 -8.69836e-06 13.2745 2137.13 2641.49 
611 0.1538 0.1538 0 -0.000137649 -0.000137649 -1.83745e-05 6.19743 1157.99 1388.94 
651 0.0984 0.0984 0 -0.000229923 -0.000229923 3.38888e-06 3.95583 631.906 837.557 
691 0.141 0.141 0 -0.000542541 -0.000542541 -6.17972e-06 6.24177 657.22 827.409 
731 0.2082 0.2082 0 -0.00089767 -0.00089767 1.56025e-06 9.58501 798.796 1144.49 
771 0.196 0.196 0 -0.000839471 -0.000839471 -9.85361e-06 8.92782 871.051 1235.51 
811 0.1386 0.1386 0 -0.000517287 -0.000517287 -8.31506e-06 6.03571 658.918 938.434 
851 0.0952 0.0952 0 -0.000210771 -0.000210771 -9.42355e-07 3.87077 573.552 729.794 
891 0.1412 0.1412 0 -0.000136661 -0.000136661 -1.22716e-05 5.79735 970.224 1194.03 
931 0.322 0.322 0 -1.50872e-05 -1.50872e-05 -1.79282e-05 13.8758 2274.25 2866.06 
971 0.705 0.705 0 0.000405957 0.000405957 -3.93443e-06 31.9027 4375.2 5688.56 
12 1.3238 1.3238 0 0.00177471 0.00177471 6.05814e-06 60.6623 7356.84 9714.84 
52 2.3802 2.3802 0 0.00501647 0.00501647 -7.31562e-05 109.714 11822.4 16552.9 
92 3.8716 3.8716 0 0.0111521 0.0111521 -0.000118669 178.503 18791.9 26255.8 
132 5.8466 5.8466 0 0.020689 0.020689 0.000151224 270.653 29084 39972.6 
172 7.675 7.675 0 0.0303822 0.0303822 3.30571e-05 353.023 34231.7 47905.5 
212 8.9708 8.9708 0 0.0382293 0.0382293 4.94732e-05 413.774 40998.7 57382 
252 9.541 9.541 0 0.0415915 0.0415915 -0.000166572 441.33 44845.2 62171.7 
292 9.0562 9.0562 0 0.038104 0.038104 -3.25559e-05 415.232 38985.9 54845.7 
332 7.5922 7.5922 0 0.0298333 0.0298333 -5.40006e-05 349.809 33610.8 47579.4 
372 5.5208 5.5208 0 0.0187992 0.0187992 1.91469e-05 252.701 24511.7 34881.6 
412 3.73 3.73 0 0.0104513 0.0104513 -8.87652e-05 170.316 18670.3 25564.7 
452 2.2236 2.2236 0 0.00457113 0.00457113 -1.23704e-05 102.826 11493.3 15828.4 
492 1.2282 1.2282 0 0.00152129 0.00152129 4.02101e-06 55.9082 6837.13 9239.02 
532 0.6328 0.6328 0 0.00035802 0.00035802 4.57395e-05 28.6877 4384.87 5496.87 
572 0.3286 0.3286 0 -7.38287e-05 -7.38287e-05 1.04294e-05 14.3737 2256.21 2894.94 
612 0.1384 0.1384 0 -0.0001425 -0.0001425 8.38313e-06 5.63517 1023.49 1238.58 
652 0.0988 0.0988 0 -0.000244482 -0.000244482 -4.23438e-06 4.03817 543.324 710.652 
692 0.145 0.145 0 -0.000542419 -0.000542419 4.09102e-06 6.25921 533.853 810.882 
732 0.2054 0.2054 0 -0.000883371 -0.000883371 3.65623e-06 9.40922 858.862 1205.05 
772 0.2038 0.2038 0 -0.000853069 -0.000853069 2.80777e-05 9.07877 867.876 1202.43 
812 0.1384 0.1384 0 -0.000499996 -0.000499996 3.15538e-06 5.97103 542.896 814.96 
852 0.091 0.091 0 -0.000197614 -0.000197614 -4.09554e-06 3.72347 554.893 777.896 
892 0.1628 0.1628 0 -0.00014397 -0.00014397 2.73409e-05 6.75688 1191.26 1465.02 
932 0.3318 0.3318 0 -6.78614e-05 -6.78614e-05 2.80718e-05 14.1785 2213.16 2762.14 
972 0.6908 0.6908 0 0.000437289 0.000437289 4.928e-06 31.2401 4436.53 5772.94 
13 1.3528 1.3528 0 0.00186182 0.00186182 -8.66022e-05 61.7056 7529.36 10304.8 
53 2.4648 2.4648 0 0.00533982 0.00533982 7.90402e-05 113.18 12757.4 17410.7 
93 4.0112 4.0112 0 0.0116706 0.0116706 -3.36644e-05 183.956 20163.2 27877.9 
133 5.8036 5.8036 0 0.0203967 0.0203967 1.46152e-06 267.051 26536.3 37574.2 
173 7.8664 7.8664 0 0.0311763 0.0311763 8.25798e-05 361.746 34212.1 48645.1 
213 9.2214 9.2214 0 0.0390033 0.0390033 -4.88891e-05 422.276 40208.5 56627.5 
253 9.5768 9.5768 0 0.0416903 0.0416903 0.000257141 442.398 44287.3 62464.1 
293 8.9214 8.9214 0 0.0377965 0.0377965 -9.27003e-05 412.499 40701.4 56770.8 
333 7.3994 7.3994 0 0.0288701 0.0288701 -6.85414e-05 339.767 33099.6 46523.3 
373 5.4702 5.4702 0 0.0186735 0.0186735 -0.000203892 251.617 25434.8 35502.9 
413 3.6646 3.6646 0 0.0101339 0.0101339 4.02095e-05 167.461 17567.9 24257.1 
453 2.2084 2.2084 0 0.00439743 0.00439743 -3.91234e-05 101.386 11249.3 15333.1 
493 1.21 1.21 0 0.00148426 0.00148426 -1.01701e-05 54.8241 6896.55 9180.96 
533 0.6272 0.6272 0 0.000294361 0.000294361 -1.88577e-05 27.8195 4011.62 5014.51 
573 0.3002 0.3002 0 -6.35119e-05 -6.35119e-05 -2.32656e-05 12.7073 2071 2635.27 
613 0.1478 0.1478 0 -0.000162202 -0.000162202 1.3992e-06 6.17183 952.263 1127.74 
653 0.1026 0.1026 0 -0.000245317 -0.000245317 -9.13583e-06 4.16115 552.977 771.504 
693 0.149 0.149 0 -0.000563431 -0.000563431 7.34249e-06 6.51315 607.742 903.124 
733 0.21 0.21 0 -0.000884303 -0.000884303 -3.03033e-06 9.40549 799.885 1125.99 
773 0.204 0.204 0 -0.000868784 -0.000868784 7.62551e-06 9.33312 791.627 1070.56 
813 0.1378 0.1378 0 -0.000522326 -0.000522326 -5.81354e-06 6.06566 508.526 787.782 
853 0.0928 0.0928 0 -0.000195619 -0.000195619 5.71772e-07 3.67952 500.981 638.524 
893 0.1648 0.1648 0 -0.0001373 -0.0001373 -2.87118e-05 6.80298 1199.47 1457.96 
933 0.3534 0.3534 0 -2.98973e-05 -2.98973e-05 2.62492e-05 15.1409 2444.36 3039.03 
973 0.7162 0.7162 0 0.000428582 0.000428582 -3.76883e-05 31.9697 4470.72 5810.98 
14 1.4096 1.4096 0 0.00203338 0.00203338 2.56856e-05 64.1631 7993.72 10872.3 
54 2.471 2.471 0 0.00542259 0.00542259 -1.44692e-05 113.563 13251.1 17815.4 
94 3.978 3.978 0 0.0116258 0.0116258 3.01532e-05 183.539 19674.2 27006.9 
134 6.0608 6.0608 0 0.021259 0.021259 -0.000102968 277.843 27796.9 39100.2 
174 7.774 7.774 0 0.0308265 0.0308265 7.02335e-05 356.93 36220.6 51165.1 
214 9.1844 9.1844 0 0.0390422 0.0390422 2.71355e-05 422.041 39105.9 56023.3 
254 9.514 9.514 0 0.0414736 0.0414736 -0.000110792 440.172 43616.9 60417 
294 8.8604 8.8604 0 0.0375672 0.0375672 -6.10476e-08 409.779 41644.9 57438.1 
334 7.4106 7.4106 0 0.0289492 0.0289492 3.9365e-05 340.394 33208.8 46770.6 
374 5.4656 5.4656 0 0.0186231 0.0186231 9.20284e-05 252.566 26142.1 35874.4 
414 3.659 3.659 0 0.0101188 0.0101188 3.58309e-05 168.648 17654 24606.2 
454 2.1698 2.1698 0 0.00442977 0.00442977 -2.66924e-05 99.5123 11556.2 15721.3 
494 1.2238 1.2238 0 0.00152601 0.00152601 3.55245e-05 55.7348 7093.98 9418.16 
534 0.6142 0.6142 0 0.000241312 0.000241312 2.29442e-05 27.5256 3829.31 4760.44 
574 0.2888 0.2888 0 -5.50774e-05 -5.50774e-05 2.17351e-06 12.3416 2108.1 2565.34 
614 0.1482 0.1482 0 -0.00016544 -0.00016544 -3.72223e-06 6.18985 963.15 1179.39 
654 0.1002 0.1002 0 -0.000252505 -0.000252505 -1.19303e-05 4.09911 533.482 674.568 
694 0.1422 0.1422 0 -0.000554843 -0.000554843 7.80264e-06 6.3583 505.24 822.631 
734 0.207 0.207 0 -0.000888885 -0.000888885 -5.32746e-06 9.45165 759.372 1161.97 
774 0.1936 0.1936 0 -0.000820677 -0.000820677 -1.47768e-05 8.74529 827.237 1263.23 
814 0.1326 0.1326 0 -0.000487169 -0.000487169 -3.49844e-06 5.7649 609.717 801.594 
854 0.0938 0.0938 0 -0.000196426 -0.000196426 -9.50208e-06 3.84894 563.684 745.839 
894 0.1696 0.1696 0 -0.000153615 -0.000153615 5.07584e-06 7.12154 1212.65 1510.52 
934 0.357 0.357 0 -3.60896e-05 -3.60896e-05 2.40971e-05 15.4699 2458.9 3151.33 
974 0.7256 0.7256 0 0.000489092 0.000489092 -3.1209e-05 32.5988 4380.94 5807.92 
15 1.4196 1.4196 0 0.00201 0.00201 5.41814e-06 64.7092 7663.48 10386.3 
55 2.4798 2.4798 0 0.00553575 0.00553575 -1.42019e-05 114.807 12806.3 17505.8 
95 4.0384 4.0384 0 0.0117975 0.0117975 -1.48047e-05 184.639 18747.1 26241.3 
135 5.8688 5.8688 0 0.0208379 0.0208379 6.00888e-05 271.449 27634.3 38656.1 
175 7.798 7.798 0 0.0312176 0.0312176 3.70018e-05 358.862 35932.2 50053.8 
215 9.267 9.267 0 0.0393118 0.0393118 -0.000134206 424.336 39048.1 55236.4 
255 9.5612 9.5612 0 0.0414983 0.0414983 0.000188449 440.507 42868.4 60592 
295 8.879 8.879 0 0.0377542 0.0377542 -5.63269e-05 412.62 42761.1 59626 
335 7.3324 7.3324 0 0.0286336 0.0286336 5.59637e-05 339.4 34120.2 48103.2 
375 5.383 5.383 0 0.018188 0.018188 -3.03342e-05 247.372 24706.2 34554.5 
415 3.6152 3.6152 0 0.00989634 0.00989634 -0.000104338 165.437 18599.9 25633.3 
455 2.1816 2.1816 0 0.00443698 0.00443698 3.27048e-05 100.212 12046.3 16491.5 
495 1.2046 1.2046 0 0.00150643 0.00150643 -6.00831e-05 54.4351 7030.98 9262.92 
535 0.5892 0.5892 0 0.000202998 0.000202998 -1.15867e-05 26.6686 3519.67 4740.7 
575 0.2842 0.2842 0 -9.85432e-05 -9.85432e-05 3.30213e-05 12.248 1924.66 2290.51 
615 0.1444 0.1444 0 -0.000158288 -0.000158288 -7.01117e-06 5.9205 1133.03 1423 
655 0.0956 0.0956 0 -0.000236906 -0.000236906 -1.43228e-06 3.93077 531.948 682.146 
695 0.153 0.153 0 -0.000579803 -0.000579803 -1.54277e-05 6.57114 743.781 1052.12 
735 0.213 0.213 0 -0.000917682 -0.000917682 -6.61588e-06 9.74484 740.988 1136.31 
775 0.1942 0.1942 0 -0.000835285 -0.000835285 1.73668e-05 8.97515 739.939 1138.67 
815 0.137 0.137 0 -0.000486111 -0.000486111 1.91439e-05 5.79809 528.822 734.935 
855 0.1024 0.1024 0 -0.000216156 -0.000216156 -1.80677e-05 4.26576 646.742 811.375 
895 0.171 0.171 0 -0.000128593 -0.000128593 1.44502e-05 7.15551 1427.35 1715.99 
935 0.3544 0.3544 0 -3.84868e-05 -3.84868e-05 1.17291e-05 15.4009 2230.8 2865.75 
975 0.733 0.733 0 0.000478191 0.000478191 3.52334e-05 33.13 4259.1 5727.73 
16 1.418 1.418 0 0.00206459 0.00206459 -9.98304e-06 65.011 8073.46 10791.4 