ITEM: TIMESTEP
25000
ITEM: NUMBER OF SURFS
1296
ITEM: BOX BOUNDS oo rr pp
0 0.3
0 0.3
-0.5 0.5
ITEM: SURFS id f_4[1] f_4[2] f_4[3] f_4[4] f_4[5] f_4[6] f_4[7] f_4[8] f_4[9] 
1 0.4068 0.4068 0 0.000705244 0.000705244 -8.98441e-06 34.6143 6114.49 8479.7 
41 2.09 2.09 0 0.00886599 0.00886599 7.15312e-05 189.042 26947.9 36944.5 
81 9.1518 9.1518 0 0.0388102 0.0388102 7.04066e-05 388.102 30558 43055.5 
121 10.1898 10.1898 0 0.0425567 0.0425567 6.21461e-05 425.567 28210.9 39144.6 
161 10.5108 10.5108 0 0.0435528 0.0435528 5.17119e-05 435.528 26930.3 37168.1 
201 10.574 10.574 0 0.0437362 0.0437362 2.70432e-05 437.362 26178.1 36217.5 
241 10.4964 10.4964 0 0.043427 0.043427 6.34593e-05 434.27 26696.6 36707.2 
281 9.9862 9.9862 0 0.0418381 0.0418381 0.0001806 418.381 27782 39104 
321 8.226 8.226 0 0.0354024 0.0354024 0.000125363 354.024 34736.6 47980.2 
361 1.3652 1.3652 0 0.00513232 0.00513232 -0.000100289 123.44 20198.7 27670.2 
401 0.8226 0.8226 0 0.00121705 0.00121705 -1.37059e-05 35.5314 6126.52 8104.23 
441 0.8788 0.8788 0 0.000903621 0.000903621 3.65909e-05 38.7867 5813.75 7734.54 
481 0.896 0.896 0 0.000831483 0.000831483 -5.74799e-06 39.5876 5465.1 7284.52 
521 0.936 0.936 0 0.000691257 0.000691257 2.06822e-05 40.9932 5407.28 7326.77 
561 0.952 0.952 0 0.000658036 0.000658036 1.51395e-05 41.3915 4561.49 6430.3 
601 0.901 0.901 0 0.000664683 0.000664683 2.24197e-06 39.1962 4784.42 6452.23 
641 0.759 0.759 0 0.000760286 0.000760286 -4.55151e-06 33.2109 4294.54 5935.03 
681 0.068 0.068 0 -9.16687e-05 -9.16687e-05 1.51478e-05 4.98735 788.992 1117.69 
721 0.0884 0.0884 0 -0.000336856 -0.000336856 -1.15598e-05 3.36856 280.638 445.347 
761 0.1568 0.1568 0 -0.000653027 -0.000653027 3.11297e-08 6.53027 514.229 787.155 
801 0.199 0.199 0 -0.000839226 -0.000839226 9.24779e-06 8.39226 755.205 1093.24 
841 0.2082 0.2082 0 -0.000885198 -0.000885198 1.78148e-05 8.85198 696.701 998.197 
881 0.2086 0.2086 0 -0.000882909 -0.000882909 -2.13791e-05 8.82909 709.981 1019.42 
921 0.154 0.154 0 -0.000651936 -0.000651936 1.70501e-05 6.51936 518.132 828.139 
961 0.0828 0.0828 0 -0.000335537 -0.000335537 -1.28145e-05 3.35537 341.985 455.824 
1001 0.0558 0.0558 0 -7.88439e-05 -7.88439e-05 -1.00158e-05 4.06237 832.271 1138.24 
1041 0.7452 0.7452 0 0.000838965 0.000838965 9.67644e-06 32.6429 4502.58 5986 
1081 0.9038 0.9038 0 0.000678797 0.000678797 -2.85862e-05 39.7006 4608.22 6257.18 
1121 0.9494 0.9494 0 0.000680152 0.000680152 -1.84455e-05 41.6484 5278.11 7058.61 
1161 0.955 0.955 0 0.000701432 0.000701432 -5.73558e-06 41.8007 5444.82 7231.61 
1201 0.943 0.943 0 0.000829283 0.000829283 -1.44171e-05 41.6713 5624.9 7489.66 
1241 0.8876 0.8876 0 0.000947393 0.000947393 6.94214e-07 39.3464 6100.44 8104.42 
1281 0.8162 0.8162 0 0.00115887 0.00115887 5.60621e-05 35.4297 5906.68 7850.62 
2 0.4398 0.4398 0 0.000847943 0.000847943 -1.18269e-05 37.2178 7073.19 9517.32 
42 2.2056 2.2056 0 0.00934586 0.00934586 -6.7176e-06 197.667 27703.9 38064.6 
82 9.2954 9.2954 0 0.0393522 0.0393522 -6.92643e-05 393.522 31071.8 43443.7 
122 10.2664 10.2664 0 0.0428119 0.0428119 7.99316e-05 428.119 28573.1 39939.2 
162 10.5306 10.5306 0 0.0436239 0.0436239 -5.10158e-05 436.239 26479.7 36433.9 
202 10.6776 10.6776 0 0.0441127 0.0441127 -4.02625e-05 441.127 26458 36378.2 
242 10.5184 10.5184 0 0.0435075 0.0435075 4.86117e-05 435.075 26473.2 36653.6 
282 9.9822 9.9822 0 0.0418373 0.0418373 -0.000192905 418.373 29157.8 40276.1 
322 7.9804 7.9804 0 0.0344797 0.0344797 8.3306e-05 344.797 34635.2 47548.8 
362 1.293 1.293 0 0.00478496 0.00478496 -4.82894e-06 115.943 18309.1 25137.2 
402 0.8072 0.8072 0 0.00118784 0.00118784 -3.76765e-05 34.6515 6054.72 7890.56 
442 0.864 0.864 0 0.000900985 0.000900985 2.38938e-05 38.2644 5764.9 7602.67 
482 0.9234 0.9234 0 0.000866985 0.000866985 -3.15501e-05 40.8232 5607.25 7489.42 
522 0.9136 0.9136 0 0.00075735 0.00075735 -3.72512e-05 40.7939 5018.14 6874.68 
562 0.9258 0.9258 0 0.000693292 0.000693292 -8.93139e-06 40.2906 4781.57 6469.87 
602 0.9168 0.9168 0 0.000722922 0.000722922 6.0873e-05 40.4597 4640.47 6304.55 
642 0.7602 0.7602 0 0.000803021 0.000803021 4.10292e-05 33.3031 4245.82 5673.52 
682 0.0688 0.0688 0 -0.000100925 -0.000100925 -4.73151e-06 5.04372 688.465 1060.23 
722 0.086 0.086 0 -0.000323892 -0.000323892 4.95348e-06 3.23892 265.421 446.023 
762 0.1612 0.1612 0 -0.00067954 -0.00067954 -3.83892e-07 6.7954 508.474 719.031 
802 0.203 0.203 0 -0.000859103 -0.000859103 -7.4924e-07 8.59103 690.601 982.111 
842 0.2228 0.2228 0 -0.000960889 -0.000960889 -4.57012e-06 9.60889 674.235 1011.86 
882 0.2096 0.2096 0 -0.000910453 -0.000910453 -1.29937e-05 9.10453 725.758 1049.28 
922 0.1658 0.1658 0 -0.000698971 -0.000698971 1.62742e-05 6.98971 462.478 738.197 
962 0.0906 0.0906 0 -0.000358147 -0.000358147 -5.62189e-06 3.58147 300.054 496.582 
1002 0.0698 0.0698 0 -0.000107692 -0.000107692 -1.78865e-05 5.19962 813.12 1113.84 
1042 0.7706 0.7706 0 0.00077929 0.00077929 1.55834e-05 33.9229 4422.59 5835.48 
1082 0.924 0.924 0 0.000693881 0.000693881 -1.36962e-05 40.436 4852.31 6558.26 
1122 0.9482 0.9482 0 0.000650955 0.000650955 -1.80522e-05 41.709 4810.26 6612.53 
1162 0.9326 0.9326 0 0.000715734 0.000715734 -1.00565e-05 40.7493 5380.74 7419.98 
1202 0.911 0.911 0 0.000778527 0.000778527 1.44017e-05 39.9756 5447.24 7415.43 
1242 0.8776 0.8776 0 0.000871989 0.000871989 5.02528e-06 38.7126 5344.32 7458.18 
1282 0.8258 0.8258 0 0.00114761 0.00114761 3.97993e-05 35.9245 6036.5 8008.01 
3 0.444 0.444 0 0.00089354 0.00089354 9.31032e-06 37.455 6987.04 9485.11 
43 2.284 2.284 0 0.00981805 0.00981805 8.00064e-05 206.323 28779.2 39217.5 
83 9.2726 9.2726 0 0.039199 0.039199 4.7752e-05 391.99 31460.2 43615.9 
123 10.2034 10.2034 0 0.0426351 0.0426351 -5.91932e-05 426.351 27253.4 38080.5 
163 10.6064 10.6064 0 0.0439274 0.0439274 -7.26926e-05 439.274 26599.1 36850.6 
203 10.6306 10.6306 0 0.0439915 0.0439915 1.57755e-05 439.915 27093.6 37820.2 
243 10.5546 10.5546 0 0.0437708 0.0437708 -3.57749e-05 437.708 26206.3 36770.4 
283 9.9194 9.9194 0 0.0415438 0.0415438 3.37421e-05 415.438 28730.8 40262.6 
323 7.9738 7.9738 0 0.0346542 0.0346542 0.000102296 346.542 35431.3 48976 
363 1.2338 1.2338 0 0.00444663 0.00444663 -3.15773e-05 110.707 17636.3 23607.3 
403 0.8188 0.8188 0 0.00113131 0.00113131 -9.84579e-06 35.3008 5979.44 7892.16 
443 0.8816 0.8816 0 0.000960466 0.000960466 -1.85054e-05 39.2127 6011.77 8015.66 
483 0.9062 0.9062 0 0.000812732 0.000812732 -7.77703e-06 39.7638 5384.84 7422.3 
523 0.9232 0.9232 0 0.000694849 0.000694849 -8.7751e-06 40.3277 5121.48 7078.22 
563 0.945 0.945 0 0.000702167 0.000702167 4.97009e-05 41.2497 5402.25 7230.27 
603 0.9212 0.9212 0 0.000658409 0.000658409 -3.5757e-05 40.1566 4674.72 6358.77 
643 0.7624 0.7624 0 0.00083637 0.00083637 5.51121e-06 33.031 4336.87 5747.02 
683 0.065 0.065 0 -0.000104612 -0.000104612 3.42603e-06 5.10386 833.785 1182.25 
723 0.0866 0.0866 0 -0.000357149 -0.000357149 -3.49413e-06 3.57149 262.855 413.612 
763 0.16 0.16 0 -0.000683816 -0.000683816 9.91596e-06 6.83816 512.191 665.313 
803 0.2086 0.2086 0 -0.000889413 -0.000889413 -2.27388e-06 8.89413 605.612 899.998 
843 0.2216 0.2216 0 -0.000955114 -0.000955114 1.66305e-05 9.55114 785.622 1175.87 
883 0.1978 0.1978 0 -0.000835753 -0.000835753 -2.76474e-05 8.35753 555.688 878.947 
923 0.1664 0.1664 0 -0.000688824 -0.000688824 -4.44082e-07 6.88824 673.176 928.27 
963 0.0926 0.0926 0 -0.000351904 -0.000351904 1.90781e-05 3.51904 226.086 448.668 
1003 0.0704 0.0704 0 -9.2834e-05 -9.2834e-05 2.31771e-06 5.09855 940.767 1247.61 
1043 0.7714 0.7714 0 0.000794324 0.000794324 2.22084e-05 33.994 4478.91 5916.25 
1083 0.8998 0.8998 0 0.000615496 0.000615496 -4.5742e-05 39.3684 4578.5 6216.26 
1123 0.9316 0.9316 0 0.000655641 0.000655641 8.75359e-06 40.9795 5142.99 7087.65 
1163 0.9222 0.9222 0 0.000717954 0.000717954 7.28342e-06 40.3682 5145.08 6931.85 
1203 0.926 0.926 0 0.000882155 0.000882155 7.04776e-06 41.3334 5853.99 7918.72 
1243 0.876 0.876 0 0.000913785 0.000913785 -1.0481e-05 38.8333 5729.87 7785.72 
1283 0.8226 0.8226 0 0.00120651 0.00120651 1.58654e-05 35.8503 6513.93 8356.17 
4 0.4648 0.4648 0 0.000977387 0.000977387 2.15736e-05 39.9484 7569.5 10503.5 
44 2.2884 2.2884 0 0.00988698 0.00988698 5.19784e-05 207.225 29331.9 40024.1 
84 9.3112 9.3112 0 0.0393221 0.0393221 -1.4993e-05 393.221 30744.4 42335 
124 10.3136 10.3136 0 0.043065 0.043065 4.20601e-06 430.65 28010 38641.3 
164 10.5824 10.5824 0 0.0437575 0.0437575 7.58692e-05 437.575 27235.6 37130.5 
204 10.7546 10.7546 0 0.0443693 0.0443693 1.44761e-06 443.693 26022.7 36500.8 
244 10.4342 10.4342 0 0.0431917 0.0431917 2.49896e-05 431.917 26892.8 37395.3 
284 9.9482 9.9482 0 0.0416653 0.0416653 1.02634e-05 416.653 28390.8 39760.2 
324 7.844 7.844 0 0.0341738 0.0341738 -4.36001e-05 341.738 37244.8 51026.3 
364 1.1844 1.1844 0 0.0041592 0.0041592 -3.60803e-05 105.011 17339.6 23915.1 
404 0.836 0.836 0 0.00117312 0.00117312 3.59785e-05 36.3447 5952.69 7850.32 
444 0.8788 0.8788 0 0.000905073 0.000905073 2.02919e-06 38.924 5908.65 7879.02 
484 0.9312 0.9312 0 0.000790693 0.000790693 -1.27048e-05 41.6563 5808.28 7653.64 
524 0.9564 0.9564 0 0.000744656 0.000744656 -2.28283e-05 42.0193 5109.77 7090.84 
564 0.956 0.956 0 0.000698595 0.000698595 -2.72765e-05 41.9508 4978.29 6794.91 
604 0.9016 0.9016 0 0.000713158 0.000713158 -4.15337e-06 39.4974 5012.95 6741.33 
644 0.7408 0.7408 0 0.00076268 0.00076268 1.69896e-05 32.7642 4206.87 5582.76 
684 0.0596 0.0596 0 -9.03056e-05 -9.03056e-05 -5.42242e-06 4.47365 761.106 942.079 
724 0.0928 0.0928 0 -0.000366889 -0.000366889 -5.17023e-06 3.66889 298.58 456.177 
764 0.154 0.154 0 -0.000636865 -0.000636865 4.77869e-06 6.36865 452.203 665.474 
804 0.2158 0.2158 0 -0.000922482 -0.000922482 -3.11417e-05 9.22482 756.771 1092.69 
844 0.2252 0.2252 0 -0.000947861 -0.000947861 1.16093e-05 9.47861 703.406 1060.06 
884 0.197 0.197 0 -0.000842481 -0.000842481 2.57405e-06 8.42481 693.68 947.29 
924 0.1564 0.1564 0 -0.000658814 -0.000658814 2.96251e-06 6.58814 471.555 746.715 
964 0.0876 0.0876 0 -0.000339307 -0.000339307 7.38105e-06 3.39307 294.492 459.304 
1004 0.063 0.063 0 -7.39234e-05 -7.39234e-05 -3.2156e-06 4.74219 874.129 1229.73 
1044 0.7944 0.7944 0 0.00081531 0.00081531 3.77536e-05 35.0127 4572.14 6123.92 
1084 0.9034 0.9034 0 0.000698277 0.000698277 3.54524e-05 39.9827 4814.16 6507.86 
1124 0.9338 0.9338 0 0.000682847 0.000682847 7.46367e-06 40.9345 5152.26 6943.3 
1164 0.938 0.938 0 0.000756107 0.000756107 -7.41946e-06 40.9523 5252.87 6939.42 
1204 0.899 0.899 0 0.000804265 0.000804265 2.54866e-05 39.72 5238.23 7100.91 
1244 0.8854 0.8854 0 0.00103701 0.00103701 -4.54287e-06 39.2218 6066.39 8001.89 
1284 0.814 0.814 0 0.00119265 0.00119265 1.68526e-06 35.1123 6192.14 8311.76 
5 0.47 0.47 0 0.00102165 0.00102165 -9.30373e-06 39.4289 6774.53 9525.7 
45 2.3974 2.3974 0 0.0102661 0.0102661 -6.15486e-05 214.682 28310.1 39388.7 
85 9.3224 9.3224 0 0.0394767 0.0394767 0.000100945 394.767 30882 42550.3 
125 10.2928 10.2928 0 0.0428997 0.0428997 -0.000202196 428.997 28043.3 38909.5 
165 10.572 10.572 0 0.0438499 0.0438499 -8.5954e-05 438.499 26919.6 37513.6 
205 10.6468 10.6468 0 0.0441689 0.0441689 9.08768e-05 441.689 26083.4 36628.7 
245 10.49 10.49 0 0.0433692 0.0433692 4.2283e-05 433.692 26324.3 37088.9 
285 10.017 10.017 0 0.0419242 0.0419242 3.40257e-05 419.242 29596.1 40575.5 
325 3.7442 3.7442 0 0.016376 0.016376 -4.70783e-05 333.186 35835.4 48560 
365 1.1048 1.1048 0 0.00387055 0.00387055 2.43502e-05 99.3205 16778.8 22606.3 
405 0.7952 0.7952 0 0.00107939 0.00107939 2.68407e-05 34.8732 5873.86 7774.66 
445 0.8672 0.8672 0 0.000911447 0.000911447 -1.62916e-05 38.7507 5433.6 7363.79 
485 0.9164 0.9164 0 0.000751833 0.000751833 -5.04351e-05 40.4203 5561.23 7323.73 
525 0.9466 0.9466 0 0.000697395 0.000697395 2.13374e-05 41.2359 5044.97 7045.72 
565 0.9532 0.9532 0 0.000645516 0.000645516 3.16671e-05 41.0871 4812.13 6526.4 
605 0.925 0.925 0 0.000652398 0.000652398 -1.20001e-05 40.3327 4444.47 6194.35 
645 0.7448 0.7448 0 0.000898797 0.000898797 1.17588e-05 32.862 4708.05 6167.62 
685 0.0576 0.0576 0 -0.00010226 -0.00010226 -6.77151e-06 4.35305 536.127 871.462 
725 0.1048 0.1048 0 -0.000410257 -0.000410257 1.23254e-06 4.10257 345.136 575.191 
765 0.1554 0.1554 0 -0.000635348 -0.000635348 1.44802e-05 6.35348 574.41 906.28 
805 0.2076 0.2076 0 -0.000877511 -0.000877511 2.14147e-05 8.77511 628.773 922.13 
845 0.222 0.222 0 -0.000932087 -0.000932087 -2.8023e-05 9.32087 732.795 1051.67 
885 0.2026 0.2026 0 -0.000871287 -0.000871287 -1.74314e-05 8.71287 683.996 1031.73 
925 0.1516 0.1516 0 -0.000621007 -0.000621007 -1.67469e-05 6.21007 460.587 710.959 
965 0.0842 0.0842 0 -0.000328595 -0.000328595 1.61558e-05 3.28595 249.032 411.029 
1005 0.0784 0.0784 0 -0.000101002 -0.000101002 -8.93839e-07 6.05594 1041.13 1387.55 
1045 0.7748 0.7748 0 0.000780867 0.000780867 -4.09435e-06 34.2031 4340.26 5826.19 
1085 0.9194 0.9194 0 0.000667797 0.000667797 -1.39387e-05 39.8779 4944.25 6687.26 
1125 0.9422 0.9422 0 0.000677055 0.000677055 -4.34596e-05 41.3401 4958.74 6783.31 
1165 0.9156 0.9156 0 0.000738909 0.000738909 1.52213e-05 39.8681 4833.95 6537.32 
1205 0.8946 0.8946 0 0.000843416 0.000843416 2.01168e-05 39.802 5876.49 7722.83 
1245 0.8852 0.8852 0 0.000919073 0.000919073 3.2375e-05 39.0464 5832.54 7534.11 
1285 0.8248 0.8248 0 0.00126359 0.00126359 1.33761e-05 35.9435 6431.19 8424.72 
6 0.4886 0.4886 0 0.00112772 0.00112772 -1.7206e-05 42.1787 7983.6 10963.7 
46 2.5028 2.5028 0 0.010841 0.010841 5.17251e-07 225.183 30324 42468.7 
86 9.5088 9.5088 0 0.04022 0.04022 -3.81753e-05 402.2 31184.7 42937.9 
126 10.2366 10.2366 0 0.042533 0.042533 9.82943e-06 425.33 26929.6 37433.9 
166 10.622 10.622 0 0.0439813 0.0439813 8.19121e-05 439.813 27033.1 37262 
206 10.615 10.615 0 0.043881 0.043881 -7.70038e-05 438.81 26011.9 35789.8 
246 10.5088 10.5088 0 0.0435232 0.0435232 -6.77976e-05 435.232 26743.5 36897.3 
286 9.8778 9.8778 0 0.0413296 0.0413296 9.68315e-05 413.296 29467.7 39881.4 
326 3.6184 3.6184 0 0.0160039 0.0160039 2.91373e-05 324.888 35791.9 48903.9 
366 1.0894 1.0894 0 0.00377385 0.00377385 3.72423e-06 97.3116 16837.4 22302.8 
406 0.8412 0.8412 0 0.001161 0.001161 6.46058e-05 36.7371 6299.26 8210.48 
446 0.8902 0.8902 0 0.000973827 0.000973827 2.34199e-06 39.5408 5912.99 7783.99 
486 0.903 0.903 0 0.00080042 0.00080042 1.46858e-05 40.1522 5480.03 7278.73 
526 0.9294 0.9294 0 0.000771276 0.000771276 4.21435e-05 40.9657 5239.83 7038.56 
566 0.9714 0.9714 0 0.000709356 0.000709356 4.16942e-05 42.4124 5007.2 6985.26 
606 0.9156 0.9156 0 0.000700794 0.000700794 -9.52882e-06 39.532 4803.75 6472.2 
646 0.7102 0.7102 0 0.000840957 0.000840957 -2.96744e-06 31.3189 4502.45 5889.98 
686 0.0544 0.0544 0 -9.89107e-05 -9.89107e-05 1.14038e-06 3.96702 559.414 874.448 
726 0.0982 0.0982 0 -0.000382343 -0.000382343 1.19454e-05 3.82343 283.484 475.74 
766 0.1708 0.1708 0 -0.000716658 -0.000716658 -1.02157e-05 7.16658 701.352 936.915 
806 0.199 0.199 0 -0.000838604 -0.000838604 -6.86242e-06 8.38604 668.903 870.679 
846 0.2086 0.2086 0 -0.000876104 -0.000876104 3.224e-05 8.76104 634.163 986.129 
886 0.2014 0.2014 0 -0.000870729 -0.000870729 -2.29769e-05 8.70729 651.245 991.636 
926 0.1434 0.1434 0 -0.00060585 -0.00060585 8.55969e-06 6.0585 458.43 731.633 
966 0.0738 0.0738 0 -0.000274773 -0.000274773 8.3402e-07 2.74773 205.827 333.162 
1006 0.0864 0.0864 0 -9.22731e-05 -9.22731e-05 -2.3832e-05 6.77299 1334.59 1742.92 
1046 0.7932 0.7932 0 0.000810619 0.000810619 2.49212e-05 35.0102 4804.94 6325.34 
1086 0.92 0.92 0 0.000687956 0.000687956 -1.18841e-05 40.3911 5088.74 6649 
1126 0.9476 0.9476 0 0.000722882 0.000722882 4.67308e-06 41.4326 4727.78 6532.45 
1166 0.9272 0.9272 0 0.000744019 0.000744019 -2.98668e-05 41.0803 5113.31 7045.96 
1206 0.8892 0.8892 0 0.000762579 0.000762579 -3.26224e-05 39.1038 5444.24 7455.68 
1246 0.8812 0.8812 0 0.00101018 0.00101018 8.03969e-06 38.8106 6071.94 7966.72 
1286 0.7986 0.7986 0 0.001209 0.001209 6.4169e-05 34.2863 5989.32 7994.18 
7 0.5356 0.5356 0 0.00132912 0.00132912 6.74549e-06 46.2399 8814.58 11895.6 
47 2.5524 2.5524 0 0.0111793 0.0111793 -0.000175417 230.903 31540.6 42749.8 
87 9.5136 9.5136 0 0.0401774 0.0401774 -0.000245172 401.774 30830.1 42844.4 
127 10.339 10.339 0 0.0429204 0.0429204 6.12242e-05 429.204 28297.4 38979.5 
167 10.6734 10.6734 0 0.0442215 0.0442215 -0.000167494 442.215 27512.2 37826.4 
207 10.6628 10.6628 0 0.0440261 0.0440261 -0.000110164 440.261 26111.7 36273.9 
247 10.4578 10.4578 0 0.0434082 0.0434082 -4.19465e-05 434.082 26783.2 37071.2 
287 9.8618 9.8618 0 0.0412944 0.0412944 -0.000108214 412.944 29091.5 40711.7 
327 3.6202 3.6202 0 0.0159678 0.0159678 -8.83228e-06 323.545 35580.6 49153.7 
367 1.0494 1.0494 0 0.00358235 0.00358235 4.00585e-05 94.2996 15813.3 21474.1 
407 0.8132 0.8132 0 0.00111086 0.00111086 1.56679e-05 35.5456 6065.47 8053.76 
447 0.8924 0.8924 0 0.000939357 0.000939357 -4.61839e-05 39.2319 5827.79 7873.81 
487 0.898 0.898 0 0.00075917 0.00075917 1.13092e-05 39.5238 5440.91 7431.08 
527 0.9398 0.9398 0 0.000773965 0.000773965 -1.76672e-05 41.2892 5373.35 7425.06 
567 0.949 0.949 0 0.000715604 0.000715604 -1.82116e-05 41.1022 4722.17 6606.12 
607 0.9188 0.9188 0 0.000670721 0.000670721 -4.13237e-05 40.4985 4664.01 6366.94 
647 0.7002 0.7002 0 0.000854441 0.000854441 -2.37997e-05 30.8677 4554.5 5989.3 
687 0.0536 0.0536 0 -0.000101418 -0.000101418 -5.9427e-06 3.91271 555.149 707.629 
727 0.0998 0.0998 0 -0.000400177 -0.000400177 -6.41639e-06 4.00177 299.504 464.971 
767 0.167 0.167 0 -0.000694607 -0.000694607 2.94796e-06 6.94607 563.126 864.923 
807 0.2118 0.2118 0 -0.000912061 -0.000912061 1.01794e-05 9.12061 630.69 856.722 
847 0.2192 0.2192 0 -0.000951206 -0.000951206 -4.78924e-06 9.51206 857.803 1190.67 
887 0.1954 0.1954 0 -0.000837642 -0.000837642 2.95461e-05 8.37642 554.667 877.414 
927 0.1518 0.1518 0 -0.00063837 -0.00063837 1.88241e-05 6.3837 433.192 645.84 
967 0.077 0.077 0 -0.000287697 -0.000287697 -2.11855e-06 2.87697 219.313 335.504 
1007 0.083 0.083 0 -9.35426e-05 -9.35426e-05 -7.11944e-06 6.48195 1041.25 1445.18 
1047 0.7978 0.7978 0 0.000788157 0.000788157 -1.81373e-05 34.9306 4699.15 6280.92 
1087 0.9106 0.9106 0 0.000667292 0.000667292 -2.27939e-05 39.7729 4425.85 6305.55 
1127 0.9438 0.9438 0 0.000674068 0.000674068 -4.28551e-05 41.4129 5010.03 6753.8 
1167 0.9252 0.9252 0 0.000739369 0.000739369 6.61204e-05 40.6511 5074.1 6875.66 
1207 0.909 0.909 0 0.000768415 0.000768415 2.04751e-06 39.6385 5524.3 7440.52 
1247 0.8612 0.8612 0 0.000920322 0.000920322 7.34095e-06 37.6551 5643.37 7493.7 
1287 0.8346 0.8346 0 0.00128217 0.00128217 -2.68401e-05 35.8455 6098.31 8156.2 
8 0.5558 0.5558 0 0.00133245 0.00133245 -1.47768e-05 48.4558 8966.65 11967.1 
48 2.5408 2.5408 0 0.0111468 0.0111468 -5.4226e-05 229.39 31459.3 43466.9 
88 9.4148 9.4148 0 0.0396842 0.0396842 7.6733e-05 396.842 30341.9 42089.1 
128 10.2908 10.2908 0 0.0428612 0.0428612 2.09176e-05 428.612 28065.3 38781.6 
168 10.6244 10.6244 0 0.0441147 0.0441147 0.000100728 441.147 27393.1 37811.9 
208 10.6824 10.6824 0 0.0441191 0.0441191 4.67339e-05 441.191 25847 35819.5 
248 10.3618 10.3618 0 0.0429502 0.0429502 -8.04906e-05 429.502 26281.6 36866.4 
288 9.9674 9.9674 0 0.0417646 0.0417646 -1.24734e-05 417.646 29922.3 41405.9 
328 3.4854 3.4854 0 0.0154066 0.0154066 7.562e-05 311.852 34240.4 47321.5 
368 1.0252 1.0252 0 0.00343747 0.00343747 4.37007e-05 90.9831 15739.3 20905 
408 0.8112 0.8112 0 0.0010866 0.0010866 -2.66016e-05 35.5526 5540.35 7533.28 
448 0.857 0.857 0 0.00090395 0.00090395 2.50153e-05 38.2616 5741.24 7697.46 
488 0.8976 0.8976 0 0.000776074 0.000776074 3.68036e-05 39.9511 5659.18 7521.62 
528 0.923 0.923 0 0.000680313 0.000680313 2.223e-06 40.7442 5257.8 7229.43 
568 0.9298 0.9298 0 0.000683298 0.000683298 -2.21737e-06 40.705 4989.3 7049.79 
608 0.9244 0.9244 0 0.000688963 0.000688963 -2.57458e-05 40.2518 4687.71 6347.1 
648 0.686 0.686 0 0.000958802 0.000958802 6.65395e-06 30.8322 4764.43 6108.46 
688 0.0502 0.0502 0 -0.000104505 -0.000104505 6.95908e-06 3.66114 480.833 725.75 
728 0.1074 0.1074 0 -0.000421254 -0.000421254 3.8981e-06 4.21254 289.993 549.612 
768 0.166 0.166 0 -0.000692397 -0.000692397 1.141e-05 6.92397 551.515 741.465 
808 0.1922 0.1922 0 -0.000797987 -0.000797987 7.51072e-06 7.97987 721.033 1063.42 
848 0.215 0.215 0 -0.000931384 -0.000931384 -1.66196e-05 9.31384 754.078 1040.2 
888 0.2068 0.2068 0 -0.000883464 -0.000883464 1.43454e-05 8.83464 665.197 1004.38 
928 0.15 0.15 0 -0.000610545 -0.000610545 -5.92922e-06 6.10545 428.8 626.597 
968 0.0786 0.0786 0 -0.000293824 -0.000293824 -6.21174e-06 2.93824 327.007 506.075 
1008 0.0938 0.0938 0 -9.89837e-05 -9.89837e-05 -2.69359e-06 7.38188 1104.94 1593.67 
1048 0.8106 0.8106 0 0.000804782 0.000804782 -3.27407e-05 35.2862 4375.99 5935.52 
1088 0.9144 0.9144 0 0.000647781 0.000647781 -2.60119e-05 40.0053 4709.18 6426.49 
1128 0.9414 0.9414 0 0.000640803 0.000640803 2.90057e-05 40.943 4848.24 6865.89 
1168 0.929 0.929 0 0.000793772 0.000793772 3.50926e-05 40.7549 5258.5 7302.51 
1208 0.9264 0.9264 0 0.000857485 0.000857485 -1.65497e-06 41.2046 5749.86 7914.72 
1248 0.8394 0.8394 0 0.000911762 0.000911762 -2.38704e-05 37.0468 5711.97 7684.97 
1288 0.8144 0.8144 0 0.00123063 0.00123063 -8.23393e-05 34.6305 6164.89 8126.49 
9 0.5916 0.5916 0 0.00150362 0.00150362 6.28699e-06 51.1431 9669.65 13276.3 
49 2.6568 2.6568 0 0.0117998 0.0117998 2.25802e-05 240.818 32128.6 43674.9 
89 9.5076 9.5076 0 0.040193 0.040193 -2.67271e-05 401.93 30172 41717.4 
129 10.3126 10.3126 0 0.0430476 0.0430476 -8.58383e-05 430.476 27864.7 38697.4 
169 10.5888 10.5888 0 0.0438144 0.0438144 -0.000105317 438.144 26965.9 37115 
209 10.6432 10.6432 0 0.044075 0.044075 7.22435e-05 440.75 26360.7 36995.9 
249 10.5422 10.5422 0 0.0437533 0.0437533 4.20386e-05 437.533 27365.9 37409.6 
289 9.7218 9.7218 0 0.0408066 0.0408066 -3.66091e-06 408.066 29019.4 39946.1 
329 3.4326 3.4326 0 0.0152209 0.0152209 3.94003e-05 307.782 34665.3 48530.1 
369 0.9736 0.9736 0 0.00329415 0.00329415 1.99113e-05 86.4848 15168.5 20395.5 
409 0.8364 0.8364 0 0.00111326 0.00111326 -1.40592e-05 36.6512 6219.06 8343.44 
449 0.8898 0.8898 0 0.000936537 0.000936537 7.21079e-06 39.4556 6105.95 7909.86 
489 0.9104 0.9104 0 0.000759748 0.000759748 -2.36233e-05 40.2899 5599.1 7581.97 
529 0.9354 0.9354 0 0.000761224 0.000761224 -3.77206e-05 41.2999 5382.37 7207.12 
569 0.954 0.954 0 0.000647402 0.000647402 3.70324e-05 41.6285 5016.88 6926.25 
609 0.9156 0.9156 0 0.000724664 0.000724664 -8.19009e-06 40.0871 4755.3 6337.04 
649 0.3338 0.3338 0 0.000401248 0.000401248 -2.22267e-05 29.6322 4354.77 5697.1 
689 0.0458 0.0458 0 -9.05326e-05 -9.05326e-05 1.84103e-05 3.40243 710.777 997.943 
729 0.1038 0.1038 0 -0.000411938 -0.000411938 4.03307e-07 4.11938 233.404 427.775 
769 0.1734 0.1734 0 -0.000725752 -0.000725752 -1.06679e-05 7.25752 600.422 890.032 
809 0.1974 0.1974 0 -0.000871107 -0.000871107 1.18062e-05 8.71107 672.738 1017.87 
849 0.2124 0.2124 0 -0.000912911 -0.000912911 -1.01516e-05 9.12911 818.604 1065.23 
889 0.1932 0.1932 0 -0.000857589 -0.000857589 -7.01965e-06 8.57589 698.984 1027.43 
929 0.1506 0.1506 0 -0.000637224 -0.000637224 7.71685e-06 6.37224 403.449 664.701 
969 0.0844 0.0844 0 -0.000319003 -0.000319003 -1.91253e-06 3.19003 226.25 400.743 
1009 0.0986 0.0986 0 -7.92703e-05 -7.92703e-05 5.204e-08 7.46436 1171.28 1515.29 
1049 0.8074 0.8074 0 0.000703809 0.000703809 7.29139e-06 34.9585 4437.53 6175.91 
1089 0.911 0.911 0 0.000681003 0.000681003 -6.7078e-05 39.6927 4483.79 6126.05 
1129 0.9398 0.9398 0 0.000708883 0.000708883 -2.13742e-05 41.2396 4788.24 6542.92 
1169 0.944 0.944 0 0.000787463 0.000787463 -1.6798e-06 41.5696 5287.65 7130.84 
1209 0.9118 0.9118 0 0.000777043 0.000777043 2.31189e-05 40.351 6021.48 8055.96 
1249 0.8628 0.8628 0 0.000909369 0.000909369 -1.97459e-05 38.3011 5904.75 8020.27 
1289 0.7998 0.7998 0 0.00119349 0.00119349 4.97322e-06 34.0812 5755.12 7812.68 
10 0.593 0.593 0 0.00152347 0.00152347 7e-06 50.6388 8954.14 11997 
50 2.7818 2.7818 0 0.0123448 0.0123448 8.79655e-05 252.365 33105 45210.5 
90 9.579 9.579 0 0.0403129 0.0403129 -2.07833e-06 403.129 29978.2 42138.1 
130 10.3322 10.3322 0 0.0431154 0.0431154 3.89104e-05 431.154 28066.2 38330.3 
170 10.6492 10.6492 0 0.0440729 0.0440729 0.000138659 440.729 26697.3 37315.2 
210 10.6314 10.6314 0 0.0440009 0.0440009 -7.6353e-06 440.009 25705.6 35525.2 
250 10.3938 10.3938 0 0.0429941 0.0429941 1.04107e-05 429.941 26318.5 36475.2 
290 9.8432 9.8432 0 0.041126 0.041126 -2.57248e-05 411.26 29507.1 41557.3 
330 3.438 3.438 0 0.0151768 0.0151768 -7.51705e-05 306.766 35108.6 49471.4 
370 0.8948 0.8948 0 0.0029133 0.0029133 6.31661e-06 78.9869 13405.9 18445.1 
410 0.8204 0.8204 0 0.00106211 0.00106211 2.4469e-06 36.0386 5790.52 7432.33 
450 0.8654 0.8654 0 0.000876555 0.000876555 -1.98448e-05 37.9296 5499.93 7471.5 
490 0.903 0.903 0 0.00073669 0.00073669 -9.10461e-06 39.8597 5335.47 7269.14 
530 0.9062 0.9062 0 0.000677699 0.000677699 2.82234e-05 39.7843 5040.44 6774.32 
570 0.939 0.939 0 0.000662528 0.000662528 3.7272e-05 40.7906 5046.32 6965.39 
610 0.9096 0.9096 0 0.000711323 0.000711323 -6.26115e-06 39.415 4615.67 6222.17 
650 0.3264 0.3264 0 0.000376439 0.000376439 -1.30713e-05 29.4241 4626.29 5900.8 
690 0.04 0.04 0 -8.27784e-05 -8.27784e-05 9.63676e-06 2.88412 502.685 717.403 
730 0.1016 0.1016 0 -0.000412274 -0.000412274 -2.96468e-06 4.12274 360.872 542.224 
770 0.1522 0.1522 0 -0.00063674 -0.00063674 -5.12292e-06 6.3674 553.241 778.279 
810 0.2046 0.2046 0 -0.000873939 -0.000873939 1.39383e-05 8.73939 576.176 807.02 
850 0.2256 0.2256 0 -0.000978714 -0.000978714 -1.76967e-05 9.78714 781.648 1102.94 
890 0.1906 0.1906 0 -0.000818954 -0.000818954 2.5466e-05 8.18954 621.131 818.026 
930 0.1522 0.1522 0 -0.000634142 -0.000634142 -3.36435e-06 6.34142 537.686 792.287 
970 0.0758 0.0758 0 -0.000282517 -0.000282517 9.05172e-06 2.82517 289.007 469.808 
1010 0.1014 0.1014 0 -0.000102512 -0.000102512 1.55383e-06 7.99261 1074.68 1520.46 
1050 0.8234 0.8234 0 0.000750197 0.000750197 -2.1597e-05 36.0924 4481.49 6082 
1090 0.9448 0.9448 0 0.000751541 0.000751541 2.08104e-05 40.9008 4648.03 6686.52 
1130 0.9338 0.9338 0 0.000687205 0.000687205 -1.0946e-05 40.7498 4757.42 6534.2 
1170 0.9278 0.9278 0 0.000743428 0.000743428 2.17814e-07 40.5728 5285.75 6935.72 
1210 0.9224 0.9224 0 0.00089248 0.00089248 -3.60155e-07 41.2863 5756.35 7694.15 
1250 0.8688 0.8688 0 0.000928253 0.000928253 -1.81126e-06 38.5749 6241.86 8250.66 
1290 0.8198 0.8198 0 0.00128351 0.00128351 2.8285e-05 35.1131 6323.46 8374.11 
11 0.6434 0.6434 0 0.00171844 0.00171844 -2.34415e-05 55.6397 10250.8 13724.2 
51 2.809 2.809 0 0.0124177 0.0124177 8.2123e-05 252.669 32202.3 44597.4 
91 9.5638 9.5638 0 0.0402876 0.0402876 4.73977e-05 402.876 29903.7 41238.8 
131 10.3826 10.3826 0 0.0432453 0.0432453 -0.000118881 432.453 28316 39750.3 
171 10.7246 10.7246 0 0.0443861 0.0443861 9.13485e-05 443.861 27233.3 37677.3 
211 10.5864 10.5864 0 0.0438426 0.0438426 -1.64996e-05 438.426 25898.8 35661.1 
251 10.423 10.423 0 0.0432696 0.0432696 4.36014e-05 432.696 28103.7 37951.2 
291 9.7908 9.7908 0 0.0410488 0.0410488 5.40889e-05 410.488 29953.8 40851.9 
331 3.3662 3.3662 0 0.0148453 0.0148453 3.17137e-05 299.982 33785 47007.4 
371 0.8622 0.8622 0 0.0026902 0.0026902 -2.54753e-05 76.8588 12620.3 17077.6 
411 0.8394 0.8394 0 0.00109368 0.00109368 2.89848e-05 36.7538 6100.29 8091.64 
451 0.888 0.888 0 0.000884147 0.000884147 -8.53775e-06 39.3035 5770.31 7691.27 
491 0.9296 0.9296 0 0.000788147 0.000788147 1.11107e-05 40.7162 5547.52 7512.93 
531 0.9412 0.9412 0 0.000723511 0.000723511 -1.09329e-05 41.3606 5432.02 7327.86 
571 0.9548 0.9548 0 0.000723395 0.000723395 -7.15714e-06 41.8094 4947.37 6803.34 
611 0.892 0.892 0 0.000681065 0.000681065 2.68032e-05 39.1741 4611.77 6263.04 
651 0.3148 0.3148 0 0.0003475 0.0003475 2.73429e-05 28.1929 4436.6 5997.09 
691 0.0428 0.0428 0 -9.49784e-05 -9.49784e-05 6.54369e-06 3.09257 491.413 760.108 
731 0.1074 0.1074 0 -0.000426652 -0.000426652 4.59611e-06 4.26652 350.997 536.902 
771 0.172 0.172 0 -0.000720589 -0.000720589 6.68743e-06 7.20589 466.472 777.767 
811 0.2172 0.2172 0 -0.0009228 -0.0009228 -7.84628e-06 9.228 738.968 1061.76 
851 0.217 0.217 0 -0.000923044 -0.000923044 -1.76766e-05 9.23044 725.818 1087.7 
891 0.2046 0.2046 0 -0.000871336 -0.000871336 1.41108e-05 8.71336 678.709 950.684 
931 0.145 0.145 0 -0.000605522 -0.000605522 2.63579e-06 6.05522 498.008 713.645 
971 0.0658 0.0658 0 -0.000257555 -0.000257555 6.87573e-06 2.57555 220.688 338.426 
1011 0.1032 0.1032 0 -7.13211e-05 -7.13211e-05 9.28126e-06 8.1242 1246.77 1866.39 
1051 0.8114 0.8114 0 0.000747451 0.000747451 -2.88798e-06 35.3402 4465.96 5954.94 
1091 0.924 0.924 0 0.000674591 0.000674591 3.5561e-05 40.3312 4871.83 6537.9 
1131 0.9506 0.9506 0 0.000686102 0.000686102 -2.12086e-05 41.4371 4732.9 6658.56 
1171 0.9326 0.9326 0 0.000740395 0.000740395 7.35974e-05 40.7992 5090.88 7101.15 
1211 0.8912 0.8912 0 0.00081422 0.00081422 -4.13648e-05 39.0418 5699.34 7578.8 
1251 0.8576 0.8576 0 0.000936695 0.000936695 -9.65014e-06 37.7932 5924.19 7755.09 
1291 0.8288 0.8288 0 0.00132068 0.00132068 -2.2999e-05 35.3077 6438.15 8465.18 
12 0.6884 0.6884 0 0.00187312 0.00187312 5.61926e-05 60.035 10787.3 14081.9 
52 2.931 2.931 0 0.0129535 0.0129535 -2.10404e-05 263.199 33825 46611.7 
92 9.5748 9.5748 0 0.0401924 0.0401924 -4.45927e-05 401.924 30079.3 41872.3 
132 10.285 10.285 0 0.042859 0.042859 -6.31107e-05 428.59 27944.7 38823.9 
172 10.5754 10.5754 0 0.0438766 0.0438766 6.09226e-05 438.766 27213.2 37566.6 
212 10.6454 10.6454 0 0.0439886 0.0439886 2.23169e-05 439.886 26675 36438.4 
252 10.441 10.441 0 0.043468 0.043468 1.81899e-06 434.68 26773.1 37274.9 
292 9.7562 9.7562 0 0.0410707 0.0410707 0.000129693 410.707 29650.4 40814.5 
332 3.2552 3.2552 0 0.0144143 0.0144143 -5.58282e-06 291.45 33996.8 48536.8 
372 0.8416 0.8416 0 0.00264828 0.00264828 -1.69457e-05 74.4917 13013.7 17502.5 