ITEM: TIMESTEP
25000
ITEM: NUMBER OF SURFS
1248
ITEM: BOX BOUNDS oo rr pp
0 0.3
0 0.3
-0.5 0.5
ITEM: SURFS id f_4[1] f_4[2] f_4[3] f_4[4] f_4[5] f_4[6] f_4[7] f_4[8] f_4[9] 
1 0.1906 0.1906 0 7.88876e-05 7.88876e-05 3.10414e-06 8.47418 2206.55 3345.47 
41 8.6444 8.6444 0 0.00798086 0.00798086 1.97285e-06 79.8086 11741 16806 
81 9.5248 9.5248 0 0.00853634 0.00853634 -1.39291e-05 85.3634 10582.5 15300.2 
121 9.8458 9.8458 0 0.00879217 0.00879217 2.58754e-05 87.9217 10297 14718.9 
161 9.9326 9.9326 0 0.00881411 0.00881411 -1.57973e-05 88.1411 10006.3 14471.4 
201 9.9312 9.9312 0 0.00884431 0.00884431 1.35953e-05 88.4431 10278.1 14832.3 
241 9.6548 9.6548 0 0.00862532 0.00862532 -1.24315e-05 86.2532 10547.7 15267.9 
281 8.8946 8.8946 0 0.00813374 0.00813374 -2.59983e-05 81.3374 11696.2 16858.7 
321 0.5266 0.5266 0 0.000488164 0.000488164 8.64611e-06 26.4788 7539.08 10672.5 
361 0.9612 0.9612 0 0.000331034 0.000331034 -1.29524e-06 8.77157 2292.62 3303.65 
401 1.0094 1.0094 0 0.000346376 0.000346376 -5.5843e-06 9.40451 2526.5 3468.7 
441 1.018 1.018 0 0.000315793 0.000315793 2.02222e-06 9.67319 2295.78 3068.11 
481 1.008 1.008 0 0.000309038 0.000309038 7.70569e-06 9.44889 2363.31 3161.24 
521 0.9388 0.9388 0 0.000272126 0.000272126 6.72682e-06 8.73876 2041.83 2719.88 
561 0.9106 0.9106 0 0.000275478 0.000275478 -4.45828e-06 8.56469 2050.66 2706.31 
601 0.7968 0.7968 0 0.000294462 0.000294462 -1.98447e-06 7.51914 1875.1 2483.65 
641 0.0414 0.0414 0 -3.19047e-05 -3.19047e-05 -5.05096e-07 0.319047 45.3891 86.556 
681 0.0632 0.0632 0 -5.07956e-05 -5.07956e-05 1.1865e-06 0.507956 55.8935 101.013 
721 0.067 0.067 0 -5.50453e-05 -5.50453e-05 2.60795e-06 0.550453 91.5875 151.453 
761 0.0752 0.0752 0 -6.58222e-05 -6.58222e-05 1.19993e-06 0.658222 97.1903 163.165 
801 0.077 0.077 0 -6.56835e-05 -6.56835e-05 1.67737e-06 0.656835 81.8261 145.794 
841 0.0726 0.0726 0 -6.22651e-05 -6.22651e-05 -3.1777e-06 0.622651 76.0116 133.961 
881 0.0676 0.0676 0 -5.7603e-05 -5.7603e-05 1.46659e-06 0.57603 96.2635 145.293 
921 0.0522 0.0522 0 -4.07996e-05 -4.07996e-05 -3.72375e-08 0.407996 57.6052 107.281 
961 0.7414 0.7414 0 0.000288924 0.000288924 5.64603e-06 7.09305 1932.23 2495.46 
1001 0.8688 0.8688 0 0.000289729 0.000289729 -1.10878e-06 8.25363 2015.34 2663.91 
1041 0.9698 0.9698 0 0.00028931 0.00028931 -2.68254e-06 9.09556 2128.29 2841.93 
1081 0.9752 0.9752 0 0.000279521 0.000279521 -8.58079e-07 9.23093 2177.42 2952.04 
1121 0.9924 0.9924 0 0.000295826 0.000295826 -1.35003e-05 9.31766 2263.9 3079.72 
1161 1.015 1.015 0 0.000329138 0.000329138 5.95304e-06 9.50851 2408.36 3318.99 
1201 1.0012 1.0012 0 0.00034844 0.00034844 6.70611e-06 9.27432 2427.02 3408.14 
1241 0.9188 0.9188 0 0.000338097 0.000338097 2.31572e-06 8.14746 2205.16 3253.75 
2 0.221 0.221 0 0.000114512 0.000114512 4.05623e-06 9.83889 2940.81 4419 
42 8.6684 8.6684 0 0.00795261 0.00795261 -2.00829e-05 79.5261 11753.9 16901.2 
82 9.5946 9.5946 0 0.00863229 0.00863229 -1.63816e-05 86.3229 10718.2 15430.4 
122 9.8256 9.8256 0 0.00872607 0.00872607 1.1237e-05 87.2607 10176.1 14659.2 
162 9.9578 9.9578 0 0.00886085 0.00886085 2.0473e-05 88.6085 10167.1 14710.4 
202 9.8412 9.8412 0 0.00874537 0.00874537 2.8831e-05 87.4537 10253.5 14804.4 
242 9.6276 9.6276 0 0.00865285 0.00865285 -3.16084e-06 86.5285 10842.6 15515.3 
282 8.8146 8.8146 0 0.0080754 0.0080754 -1.261e-05 80.754 11486.7 16486.8 
322 0.4628 0.4628 0 0.000406826 0.000406826 5.03625e-06 22.4416 6567.3 9510.07 
362 0.9924 0.9924 0 0.000341932 0.000341932 1.56178e-06 9.12093 2387.17 3381.13 
402 1.0146 1.0146 0 0.000318304 0.000318304 9.41013e-06 9.60558 2438.75 3389.2 
442 1.0168 1.0168 0 0.000323987 0.000323987 2.66236e-06 9.56322 2351.64 3148.12 
482 0.988 0.988 0 0.000296176 0.000296176 -5.08113e-06 9.27793 2218.53 2978.54 
522 0.9476 0.9476 0 0.000287672 0.000287672 -9.26827e-07 8.85179 2103.11 2749.81 
562 0.9142 0.9142 0 0.00028332 0.00028332 3.30603e-06 8.46581 1960.68 2623.1 
602 0.8182 0.8182 0 0.000292862 0.000292862 -1.04699e-05 7.77513 1948.06 2531.71 
642 0.0518 0.0518 0 -3.74284e-05 -3.74284e-05 7.72044e-07 0.374284 56.373 103.226 
682 0.0612 0.0612 0 -4.93346e-05 -4.93346e-05 -2.08013e-06 0.493346 79.7677 123.749 
722 0.0692 0.0692 0 -5.99e-05 -5.99e-05 -1.70722e-07 0.599 81.0679 142.267 
762 0.0804 0.0804 0 -7.18988e-05 -7.18988e-05 -1.37709e-06 0.718988 90.078 155.667 
802 0.075 0.075 0 -6.67063e-05 -6.67063e-05 4.40471e-06 0.667063 98.83 156.932 
842 0.0808 0.0808 0 -6.76014e-05 -6.76014e-05 4.63435e-08 0.676014 89.151 146.162 
882 0.0656 0.0656 0 -5.35712e-05 -5.35712e-05 5.66781e-07 0.535712 65.2832 107.786 
922 0.0482 0.0482 0 -3.67025e-05 -3.67025e-05 -4.18076e-07 0.367025 46.0068 84.5241 
962 0.7348 0.7348 0 0.000295636 0.000295636 -3.61537e-06 6.96382 1809.2 2372.73 
1002 0.8996 0.8996 0 0.000292295 0.000292295 -1.37503e-05 8.47507 2037.37 2670.95 
1042 0.9412 0.9412 0 0.000297288 0.000297288 1.18771e-05 8.8795 2149.25 2818.75 
1082 1.0046 1.0046 0 0.000305368 0.000305368 -2.92091e-06 9.46529 2305.35 3102.2 
1122 1.0028 1.0028 0 0.000315266 0.000315266 4.14902e-07 9.42808 2437.31 3314.1 
1162 1.0174 1.0174 0 0.000312309 0.000312309 1.16019e-06 9.66981 2416.64 3248.06 
1202 0.978 0.978 0 0.000336804 0.000336804 -2.21224e-06 9.06863 2404.09 3341.7 
1242 0.9044 0.9044 0 0.000327256 0.000327256 -2.92766e-07 8.01523 2125.72 3204.86 
3 0.26 0.26 0 0.000154753 0.000154753 4.17833e-06 11.86 3169.7 4871.62 
43 8.6566 8.6566 0 0.00799099 0.00799099 8.15778e-06 79.9099 11648.2 16732.9 
83 9.5534 9.5534 0 0.00859161 0.00859161 1.07744e-05 85.9161 10523.4 15343.3 
123 9.8346 9.8346 0 0.00875892 0.00875892 -6.24452e-06 87.5892 10059.2 14395.2 
163 9.9824 9.9824 0 0.00886473 0.00886473 7.12617e-06 88.6473 10078.6 14541.1 
203 9.9512 9.9512 0 0.0088421 0.0088421 -3.96927e-05 88.421 10344.5 14905.7 
243 9.628 9.628 0 0.00862716 0.00862716 5.00385e-06 86.2716 10779.4 15608.1 
283 8.7928 8.7928 0 0.00808618 0.00808618 -8.04542e-06 80.8618 11472 16415.7 
323 0.3896 0.3896 0 0.000311799 0.000311799 9.85147e-06 18.6934 5429.86 7990.37 
363 0.9582 0.9582 0 0.000351962 0.000351962 -5.71288e-06 8.78451 2366.94 3393.14 
403 0.9766 0.9766 0 0.00033055 0.00033055 8.07051e-06 9.15683 2399.79 3312.79 
443 0.9822 0.9822 0 0.000298778 0.000298778 -1.35761e-05 9.22725 2345.16 3141.24 
483 0.9962 0.9962 0 0.000282867 0.000282867 1.62182e-05 9.41393 2273.08 3030.84 
523 0.9676 0.9676 0 0.000288588 0.000288588 -1.45868e-05 9.02351 2130.91 2838.14 
563 0.9438 0.9438 0 0.000307448 0.000307448 2.28088e-06 8.9581 2149.36 2882.37 
603 0.7952 0.7952 0 0.000285042 0.000285042 2.0374e-06 7.48021 1867.42 2416.17 
643 0.0448 0.0448 0 -3.38224e-05 -3.38224e-05 -5.66385e-07 0.338224 42.1298 81.5174 
683 0.066 0.066 0 -5.49181e-05 -5.49181e-05 -7.56808e-07 0.549181 82.6491 136.264 
723 0.0748 0.0748 0 -6.34514e-05 -6.34514e-05 3.28778e-07 0.634514 84.596 135.805 
763 0.083 0.083 0 -7.31585e-05 -7.31585e-05 -2.80903e-06 0.731585 93.1999 152.899 
803 0.076 0.076 0 -6.64393e-05 -6.64393e-05 9.89716e-07 0.664393 95.4013 158.492 
843 0.079 0.079 0 -6.73825e-05 -6.73825e-05 6.55568e-07 0.673825 92.4707 140.383 
883 0.0666 0.0666 0 -5.84442e-05 -5.84442e-05 2.7813e-06 0.584442 87.521 123.503 
923 0.051 0.051 0 -3.91386e-05 -3.91386e-05 -5.82244e-08 0.391386 54.1634 91.2125 
963 0.755 0.755 0 0.000300899 0.000300899 3.81319e-06 7.20981 1934.97 2526.29 
1003 0.898 0.898 0 0.000296395 0.000296395 -3.14891e-06 8.49828 2042.79 2692.96 
1043 0.9444 0.9444 0 0.000296216 0.000296216 9.90667e-06 8.93084 2176.42 2876.72 
1083 0.963 0.963 0 0.000283483 0.000283483 5.57971e-06 9.0722 2101.69 2814.58 
1123 1.0102 1.0102 0 0.00031488 0.00031488 7.75143e-06 9.41216 2292.32 3116.05 
1163 1.0092 1.0092 0 0.000315904 0.000315904 5.00595e-06 9.5076 2357.08 3268.36 
1203 0.9824 0.9824 0 0.000331438 0.000331438 -8.56176e-06 9.13163 2451.92 3418.64 
1243 0.8866 0.8866 0 0.000318401 0.000318401 6.72771e-06 7.85021 2114.33 3133.48 
4 0.2782 0.2782 0 0.000183386 0.000183386 3.95445e-06 12.7761 3636.65 5453.34 
44 8.7502 8.7502 0 0.00807643 0.00807643 2.29838e-05 80.7643 11845 16911.6 
84 9.5118 9.5118 0 0.00858851 0.00858851 -9.55327e-06 85.8851 10674.7 15356.8 
124 9.8078 9.8078 0 0.00874937 0.00874937 -1.92335e-06 87.4937 10340.4 14925.4 
164 9.9542 9.9542 0 0.00886505 0.00886505 -1.80181e-05 88.6505 10149.2 14593.7 
204 9.9478 9.9478 0 0.00884976 0.00884976 1.52555e-05 88.4976 10305 14853.4 
244 9.5688 9.5688 0 0.00859549 0.00859549 1.53312e-05 85.9549 10699.6 15251.9 
284 8.83 8.83 0 0.00811044 0.00811044 4.93086e-06 81.1044 11657.3 16823.4 
324 0.3298 0.3298 0 0.000247804 0.000247804 4.2174e-06 15.6444 4298.25 6231.15 
364 0.9618 0.9618 0 0.00034104 0.00034104 3.02195e-06 8.96466 2420.35 3343.27 
404 1.0016 1.0016 0 0.000319512 0.000319512 -9.97269e-06 9.45667 2370.37 3230.88 
444 1.008 1.008 0 0.000312898 0.000312898 -1.23535e-05 9.52302 2316.12 3184.81 
484 0.9892 0.9892 0 0.00031126 0.00031126 -1.0531e-05 9.24521 2294.68 3099.19 
524 0.9378 0.9378 0 0.000286238 0.000286238 1.67313e-06 8.70223 2068.2 2727.21 
564 0.9032 0.9032 0 0.000271968 0.000271968 3.30983e-06 8.46754 2019.59 2679.37 
604 0.8066 0.8066 0 0.000276875 0.000276875 -5.05931e-06 7.61084 1926.45 2561.68 
644 0.0466 0.0466 0 -3.47815e-05 -3.47815e-05 3.87134e-08 0.347815 59.1723 93.0185 
684 0.0592 0.0592 0 -4.98016e-05 -4.98016e-05 -2.97054e-06 0.498016 69.7663 123.079 
724 0.071 0.071 0 -6.00825e-05 -6.00825e-05 -1.04887e-06 0.600825 94.4207 147.556 
764 0.078 0.078 0 -7.00234e-05 -7.00234e-05 -3.42915e-06 0.700234 97.1764 166.687 
804 0.0798 0.0798 0 -6.96908e-05 -6.96908e-05 -1.55306e-06 0.696908 92.1721 164.972 
844 0.0758 0.0758 0 -6.30524e-05 -6.30524e-05 3.30201e-07 0.630524 102.169 168.576 
884 0.058 0.058 0 -4.61202e-05 -4.61202e-05 4.41382e-07 0.461202 53.2966 93.1283 
924 0.052 0.052 0 -4.17933e-05 -4.17933e-05 1.2019e-06 0.417933 51.333 91.2628 
964 0.7376 0.7376 0 0.000284477 0.000284477 -5.04117e-06 7.09735 1862.88 2417.53 
1004 0.9054 0.9054 0 0.000302907 0.000302907 4.93768e-06 8.53086 2095.9 2752.97 
1044 0.9538 0.9538 0 0.000291505 0.000291505 -1.10484e-05 8.98779 2089.81 2782.11 
1084 0.9666 0.9666 0 0.000287117 0.000287117 -5.25439e-06 9.12554 2178.34 2951.32 
1124 1.0134 1.0134 0 0.000316663 0.000316663 3.035e-06 9.55969 2431.36 3243.54 
1164 1.0236 1.0236 0 0.000326484 0.000326484 5.90367e-06 9.63805 2441.8 3371.94 
1204 0.9926 0.9926 0 0.000344355 0.000344355 -2.43574e-06 9.2236 2475.57 3476.95 
1244 0.9076 0.9076 0 0.000331653 0.000331653 4.51893e-06 7.98844 2137.96 3260.5 
5 0.3408 0.3408 0 0.000258534 0.000258534 -9.81055e-06 16.3798 4787.81 6999.45 
45 8.6864 8.6864 0 0.00796105 0.00796105 5.97206e-06 79.6105 11387.1 16356.8 
85 9.5362 9.5362 0 0.00854212 0.00854212 -1.88161e-05 85.4212 10529.2 15236.5 
125 9.8594 9.8594 0 0.00876378 0.00876378 -1.58628e-05 87.6378 10239.9 14698.9 
165 9.9356 9.9356 0 0.00882699 0.00882699 6.59389e-06 88.2699 10262.3 14846.1 
205 9.8276 9.8276 0 0.00876426 0.00876426 -7.56111e-06 87.6426 10142.7 14645.8 
245 9.5374 9.5374 0 0.00854721 0.00854721 -9.94439e-06 85.4721 10600.5 15317.3 
285 8.6664 8.6664 0 0.00799903 0.00799903 -4.60905e-05 79.9903 11702.7 16749.3 
325 0.279 0.279 0 0.000199148 0.000199148 1.62698e-06 13.3014 3750.68 5708.29 
365 0.985 0.985 0 0.000337683 0.000337683 7.55691e-06 8.99101 2338.97 3370.16 
405 1.0326 1.0326 0 0.000330581 0.000330581 7.09303e-06 9.7379 2434.77 3308.32 
445 1.0184 1.0184 0 0.000314202 0.000314202 -2.10761e-05 9.54334 2330.89 3191.16 
485 1.0044 1.0044 0 0.000314446 0.000314446 2.9843e-06 9.43384 2336.07 3122.21 
525 0.9726 0.9726 0 0.000302714 0.000302714 8.42743e-07 9.07576 2194.88 2970.08 
565 0.9246 0.9246 0 0.00029618 0.00029618 -7.5576e-06 8.77067 2110.86 2774.58 
605 0.811 0.811 0 0.000287997 0.000287997 -5.18676e-06 7.66229 1931.72 2488.1 
645 0.042 0.042 0 -3.16368e-05 -3.16368e-05 1.47346e-06 0.316368 55.4471 92.5365 
685 0.0618 0.0618 0 -5.28959e-05 -5.28959e-05 -1.98178e-06 0.528959 83.2091 142.295 
725 0.073 0.073 0 -6.34011e-05 -6.34011e-05 -1.63634e-06 0.634011 92.1647 147.864 
765 0.0776 0.0776 0 -6.7052e-05 -6.7052e-05 -3.57163e-06 0.67052 94.8338 154.505 
805 0.0818 0.0818 0 -6.99395e-05 -6.99395e-05 1.64618e-06 0.699395 98.1055 151.325 
845 0.0792 0.0792 0 -6.8418e-05 -6.8418e-05 1.45458e-06 0.68418 99.0526 145.455 
885 0.0646 0.0646 0 -5.39299e-05 -5.39299e-05 4.40935e-07 0.539299 82.1933 122.929 
925 0.0536 0.0536 0 -4.25449e-05 -4.25449e-05 -2.42066e-06 0.425449 49.8019 99.0765 
965 0.7444 0.7444 0 0.000286395 0.000286395 6.32538e-09 7.09511 1886.69 2459.56 
1005 0.9318 0.9318 0 0.000297178 0.000297178 -2.07995e-06 8.8605 2125.08 2794.76 
1045 0.9574 0.9574 0 0.000290593 0.000290593 -7.51065e-06 8.98941 2163.32 2925.3 
1085 0.9958 0.9958 0 0.000300707 0.000300707 4.35447e-07 9.39755 2248.43 2984.54 
1125 1.0064 1.0064 0 0.00031589 0.00031589 7.57857e-06 9.59688 2424.89 3330.35 
1165 1.0268 1.0268 0 0.000342375 0.000342375 3.52388e-06 9.61147 2543.8 3476.85 
1205 0.978 0.978 0 0.000331378 0.000331378 -4.52724e-06 9.07499 2427.93 3375.27 
1245 0.8936 0.8936 0 0.000317162 0.000317162 3.47633e-06 7.76612 1991.42 3028.58 
6 0.3864 0.3864 0 0.000315304 0.000315304 6.41629e-06 18.421 5252.93 7751.19 
46 8.8264 8.8264 0 0.00809259 0.00809259 1.43007e-05 80.9259 11537 16601.5 
86 9.5908 9.5908 0 0.00857255 0.00857255 1.73893e-05 85.7255 10601.7 15353.6 
126 9.869 9.869 0 0.0087641 0.0087641 -2.46087e-05 87.641 10138.4 14596.5 
166 9.9668 9.9668 0 0.00884545 0.00884545 -2.55043e-05 88.4545 9937.39 14416.5 
206 9.8856 9.8856 0 0.0087817 0.0087817 9.49036e-06 87.817 10315.5 14831.4 
246 9.5662 9.5662 0 0.00862885 0.00862885 -2.69818e-05 86.2885 10766.1 15415.3 
286 8.715 8.715 0 0.0080366 0.0080366 4.82871e-06 80.366 11788.5 16861.4 
326 0.266 0.266 0 0.000153177 0.000153177 -3.25169e-06 12.3531 3337.33 4996.91 
366 0.9828 0.9828 0 0.000342067 0.000342067 -1.0907e-05 9.17316 2441.64 3434.07 
406 0.9868 0.9868 0 0.000327899 0.000327899 -1.56799e-06 9.27291 2367.91 3271.88 
446 0.9882 0.9882 0 0.000309346 0.000309346 -3.08636e-06 9.32354 2307.03 3122.41 
486 1.0194 1.0194 0 0.000312534 0.000312534 3.37455e-06 9.60167 2325.8 3080.16 
526 0.9652 0.9652 0 0.000284652 0.000284652 6.71185e-06 9.10012 2129.38 2871.37 
566 0.901 0.901 0 0.000292554 0.000292554 -1.13014e-06 8.52697 2048.47 2721.48 
606 0.7956 0.7956 0 0.000294903 0.000294903 7.74266e-07 7.56011 1989.35 2563.31 
646 0.044 0.044 0 -3.34345e-05 -3.34345e-05 -5.76856e-08 0.334345 35.8698 72.6875 
686 0.059 0.059 0 -4.96603e-05 -4.96603e-05 -4.66412e-08 0.496603 68.7003 126.279 
726 0.0772 0.0772 0 -6.40734e-05 -6.40734e-05 -2.74081e-06 0.640734 67.6211 132.374 
766 0.0818 0.0818 0 -7.19282e-05 -7.19282e-05 -6.66337e-07 0.719282 110.751 169.757 
806 0.076 0.076 0 -6.49472e-05 -6.49472e-05 -9.1087e-08 0.649472 80.6636 143.634 
846 0.0794 0.0794 0 -6.8696e-05 -6.8696e-05 7.34001e-07 0.68696 86.4094 154.195 
886 0.0618 0.0618 0 -5.25261e-05 -5.25261e-05 2.01691e-06 0.525261 87.2003 137.365 
926 0.0502 0.0502 0 -4.1116e-05 -4.1116e-05 9.90025e-07 0.41116 58.4611 100.569 
966 0.7538 0.7538 0 0.000289602 0.000289602 5.39029e-06 7.13509 1797.94 2374.11 
1006 0.883 0.883 0 0.000281757 0.000281757 -5.4614e-06 8.30744 1970.41 2629.3 
1046 0.9712 0.9712 0 0.000290168 0.000290168 -5.98279e-06 9.21073 2204.37 2946.47 
1086 1.0058 1.0058 0 0.000302701 0.000302701 -6.45267e-06 9.44902 2250.76 3030.97 
1126 0.9726 0.9726 0 0.000297288 0.000297288 -2.05773e-09 9.20566 2359.54 3220.54 
1166 1.0042 1.0042 0 0.000330643 0.000330643 -7.79881e-06 9.40605 2344.97 3324.17 
1206 0.9684 0.9684 0 0.000350493 0.000350493 1.00842e-05 9.08411 2425.37 3408.32 
1246 0.8664 0.8664 0 0.000310935 0.000310935 1.15698e-06 7.41612 1997.58 3020.16 
7 0.4626 0.4626 0 0.000410934 0.000410934 -6.60232e-06 22.7646 6364.58 9184.7 
47 8.8356 8.8356 0 0.00812806 0.00812806 9.75767e-06 81.2806 11515 16369.2 
87 9.547 9.547 0 0.00856978 0.00856978 1.43075e-05 85.6978 10439.7 14917.8 
127 9.9022 9.9022 0 0.00880396 0.00880396 3.2357e-05 88.0396 10244.5 14683.5 
167 9.95 9.95 0 0.00880161 0.00880161 9.13517e-06 88.0161 9791.35 14173.5 
207 9.8762 9.8762 0 0.00879072 0.00879072 -2.9556e-05 87.9072 10153.6 14666.5 
247 9.5354 9.5354 0 0.00853623 0.00853623 -1.0956e-05 85.3623 10571.1 15149.2 
287 8.6664 8.6664 0 0.00796734 0.00796734 2.27607e-05 79.6734 11573 16549.9 
327 0.2068 0.2068 0 0.000104982 0.000104982 -5.48933e-06 9.35811 2540.19 3672.29 
367 0.9808 0.9808 0 0.000340485 0.000340485 -7.00717e-06 9.11578 2490.99 3465.2 
407 1.0096 1.0096 0 0.000314757 0.000314757 -1.12776e-05 9.42652 2446.61 3331.91 
447 1.0206 1.0206 0 0.000324464 0.000324464 -3.96697e-06 9.58407 2449.65 3272.3 
487 0.989 0.989 0 0.000300252 0.000300252 -7.86166e-06 9.44717 2264.05 3037.06 
527 0.955 0.955 0 0.000290412 0.000290412 3.13067e-06 8.91357 2165.09 2885.51 
567 0.8956 0.8956 0 0.000276156 0.000276156 -3.18241e-06 8.49375 2046.47 2663.79 
607 0.7748 0.7748 0 0.000290636 0.000290636 -2.57775e-06 7.31285 1918.8 2516.36 
647 0.0418 0.0418 0 -3.27034e-05 -3.27034e-05 -1.16222e-06 0.327034 50.3538 80.9039 
687 0.0576 0.0576 0 -4.81279e-05 -4.81279e-05 1.76808e-06 0.481279 70.4633 133.251 
727 0.073 0.073 0 -6.08325e-05 -6.08325e-05 -2.50298e-06 0.608325 71.7403 131.377 
767 0.077 0.077 0 -6.46932e-05 -6.46932e-05 5.53058e-07 0.646932 87.2573 150.578 
807 0.072 0.072 0 -6.28135e-05 -6.28135e-05 -5.47904e-07 0.628135 86.6679 139.233 
847 0.0658 0.0658 0 -5.88111e-05 -5.88111e-05 -6.49396e-07 0.588111 89.3053 132.277 
887 0.059 0.059 0 -4.86205e-05 -4.86205e-05 6.22048e-07 0.486205 63.6277 115.227 
927 0.0442 0.0442 0 -3.33086e-05 -3.33086e-05 1.44384e-06 0.333086 33.018 66.5707 
967 0.7614 0.7614 0 0.000302197 0.000302197 3.36852e-06 7.22924 1888.67 2478.22 
1007 0.8726 0.8726 0 0.000273558 0.000273558 -6.19285e-06 8.2237 1955.29 2579.66 
1047 0.955 0.955 0 0.000282619 0.000282619 -1.29749e-05 9.08982 2137.91 2812.57 
1087 0.9838 0.9838 0 0.000287036 0.000287036 8.36183e-06 9.16408 2165.17 2929.51 
1127 0.9788 0.9788 0 0.000305739 0.000305739 -1.80233e-05 9.20048 2260.2 3045.94 
1167 0.9942 0.9942 0 0.000318996 0.000318996 -1.07762e-05 9.44765 2466.42 3338.78 
1207 0.9796 0.9796 0 0.000340194 0.000340194 -7.61948e-06 9.07549 2414.23 3357.38 
1247 0.8806 0.8806 0 0.000319751 0.000319751 -6.85461e-06 7.66578 2101.93 3155.71 
8 0.511 0.511 0 0.000467668 0.000467668 -1.23853e-06 25.1694 7370.18 10373.9 
48 8.7902 8.7902 0 0.00809068 0.00809068 4.39093e-06 80.9068 11371.8 16452.3 
88 9.5784 9.5784 0 0.00859376 0.00859376 3.51411e-05 85.9376 10667.6 15274.6 
128 9.9454 9.9454 0 0.00884048 0.00884048 -2.5755e-05 88.4048 10261.9 14651.6 
168 9.9586 9.9586 0 0.00884222 0.00884222 2.23772e-06 88.4222 10106.5 14592.3 
208 9.845 9.845 0 0.00877312 0.00877312 -2.66783e-05 87.7312 10349.5 14847.4 
248 9.5992 9.5992 0 0.0086439 0.0086439 -3.58076e-06 86.439 10892.4 15584.5 
288 8.5922 8.5922 0 0.00793071 0.00793071 1.7549e-05 79.3071 11865.9 16824.2 
328 0.1836 0.1836 0 7.14558e-05 7.14558e-05 3.50442e-06 7.98607 2112.05 3107.21 
368 0.9992 0.9992 0 0.00034346 0.00034346 3.04762e-06 9.24394 2505.95 3583.68 
408 0.9982 0.9982 0 0.000328703 0.000328703 -1.29542e-06 9.42149 2451.88 3286.66 
448 1.0208 1.0208 0 0.000321092 0.000321092 3.3556e-06 9.5642 2378.13 3250.87 
488 0.9648 0.9648 0 0.000293405 0.000293405 -6.48572e-06 9.07152 2116.03 2880.87 
528 0.9732 0.9732 0 0.000298057 0.000298057 9.16246e-07 9.18812 2217.74 2970.07 
568 0.9032 0.9032 0 0.000283005 0.000283005 -8.56635e-06 8.45751 2059.57 2695.27 
608 0.7888 0.7888 0 0.000286807 0.000286807 4.4503e-06 7.45965 1961.87 2544.57 
648 0.0456 0.0456 0 -3.54381e-05 -3.54381e-05 -2.41688e-06 0.354381 59.4151 103.639 
688 0.0668 0.0668 0 -5.48617e-05 -5.48617e-05 -1.78194e-06 0.548617 59.6917 132.096 
728 0.0716 0.0716 0 -6.19869e-05 -6.19869e-05 -2.27453e-06 0.619869 90.8092 149.19 
768 0.0764 0.0764 0 -6.61948e-05 -6.61948e-05 -6.88656e-06 0.661948 94.7986 170.652 
808 0.085 0.085 0 -7.42171e-05 -7.42171e-05 1.29595e-09 0.742171 90.8578 169.14 
848 0.0768 0.0768 0 -6.52314e-05 -6.52314e-05 -7.09888e-07 0.652314 93.617 143.751 
888 0.0642 0.0642 0 -5.28367e-05 -5.28367e-05 -1.32978e-06 0.528367 88.0593 153.057 
928 0.0518 0.0518 0 -3.90696e-05 -3.90696e-05 1.34474e-06 0.390696 52.3562 90.2526 
968 0.7764 0.7764 0 0.000297729 0.000297729 5.05111e-07 7.34639 1882.66 2433.52 
1008 0.9008 0.9008 0 0.000278815 0.000278815 6.47984e-06 8.56173 2054.33 2697.32 
1048 0.9542 0.9542 0 0.000295558 0.000295558 7.8677e-06 9.01046 2137.6 2860.34 
1088 0.9978 0.9978 0 0.000300227 0.000300227 4.09489e-06 9.37451 2259.7 3084.38 
1128 1.0094 1.0094 0 0.000297532 0.000297532 5.55614e-06 9.55047 2311.66 3171.4 
1168 0.979 0.979 0 0.000336117 0.000336117 4.47275e-07 9.06686 2308.87 3173.62 
1208 0.9736 0.9736 0 0.000341727 0.000341727 1.96795e-05 9.03833 2384.77 3337.52 
1248 0.8762 0.8762 0 0.000313426 0.000313426 3.13391e-06 7.4502 1923.28 2979.43 
9 0.6058 0.6058 0 0.000576562 0.000576562 1.12279e-05 30.0686 8640.06 12294.1 
49 8.8194 8.8194 0 0.00808199 0.00808199 -4.72338e-06 80.8199 11259.6 16154 
89 9.617 9.617 0 0.00862708 0.00862708 -1.55933e-05 86.2708 10478.7 15022.2 
129 9.834 9.834 0 0.00873153 0.00873153 -1.31886e-06 87.3153 10188.1 14663.8 
169 10.03 10.03 0 0.00887745 0.00887745 -2.41059e-05 88.7745 10116 14502.5 
209 9.905 9.905 0 0.00879652 0.00879652 1.72977e-05 87.9652 10235.3 14723 
249 9.445 9.445 0 0.00849934 0.00849934 2.85565e-06 84.9934 10959.5 15604.8 
289 8.5876 8.5876 0 0.00798458 0.00798458 8.41342e-06 79.8458 12088 17156.1 
329 0.8532 0.8532 0 0.000303916 0.000303916 9.17759e-06 7.36758 1949.33 2944.45 
369 0.9536 0.9536 0 0.000331457 0.000331457 3.79512e-07 8.7855 2355.7 3315.94 
409 1.0076 1.0076 0 0.000349008 0.000349008 2.53246e-06 9.59103 2582.68 3510.31 
449 1.0076 1.0076 0 0.000311992 0.000311992 2.92199e-06 9.50924 2409.11 3279.64 
489 1.0016 1.0016 0 0.000308189 0.000308189 -2.43689e-07 9.44731 2238.82 3042.67 
529 0.9516 0.9516 0 0.000286202 0.000286202 -4.27364e-06 8.95623 2090.31 2824.91 
569 0.909 0.909 0 0.000278574 0.000278574 -4.6896e-06 8.58743 2066.87 2734.49 
609 0.7812 0.7812 0 0.000301702 0.000301702 1.08588e-05 7.43221 1941.38 2535.42 
649 0.0502 0.0502 0 -4.0352e-05 -4.0352e-05 1.42229e-06 0.40352 56.4917 86.7572 
689 0.0634 0.0634 0 -5.29147e-05 -5.29147e-05 9.75053e-07 0.529147 79.8418 136.532 
729 0.0688 0.0688 0 -5.66447e-05 -5.66447e-05 2.2806e-06 0.566447 79.5412 129.257 
769 0.075 0.075 0 -6.57045e-05 -6.57045e-05 3.21895e-06 0.657045 98.6064 144.89 
809 0.0832 0.0832 0 -7.20899e-05 -7.20899e-05 -5.58761e-07 0.720899 102.426 167.308 
849 0.0822 0.0822 0 -6.7725e-05 -6.7725e-05 2.33349e-06 0.67725 99.7136 170.421 
889 0.0602 0.0602 0 -4.93738e-05 -4.93738e-05 -1.20792e-06 0.493738 66.5625 115.445 
929 0.0456 0.0456 0 -3.63201e-05 -3.63201e-05 -4.48834e-07 0.363201 57.1844 102.437 
969 0.7768 0.7768 0 0.000299285 0.000299285 -1.32051e-06 7.39354 1911.61 2502.2 
1009 0.9086 0.9086 0 0.000287232 0.000287232 -5.24074e-06 8.72632 2139.12 2817.14 
1049 0.9832 0.9832 0 0.000301359 0.000301359 -7.26266e-06 9.20564 2263.61 3037.83 
1089 0.9946 0.9946 0 0.000297728 0.000297728 1.02696e-06 9.3934 2177.94 2955.55 
1129 1.003 1.003 0 0.000304285 0.000304285 -1.05861e-06 9.40069 2339.05 3198.25 
1169 1.006 1.006 0 0.000331672 0.000331672 -1.93759e-07 9.52126 2453.88 3322.71 
1209 0.9836 0.9836 0 0.000348082 0.000348082 -4.3886e-07 9.07078 2410.29 3401.59 
10 0.693 0.693 0 0.000694191 0.000694191 -2.95602e-06 35.014 10096.4 14005 
50 8.8746 8.8746 0 0.00815289 0.00815289 -1.81537e-05 81.5289 11398.5 16395.6 
90 9.6182 9.6182 0 0.00861259 0.00861259 -3.00169e-05 86.1259 10459.3 15239.9 
130 10.0122 10.0122 0 0.00892156 0.00892156 1.89129e-06 89.2156 10283.6 14832.1 
170 9.9452 9.9452 0 0.00881812 0.00881812 2.62595e-05 88.1812 10235.7 14610.6 
210 9.8684 9.8684 0 0.00878916 0.00878916 -4.02785e-06 87.8916 10418.5 14919.5 
250 9.4972 9.4972 0 0.00853411 0.00853411 -2.33727e-05 85.3411 10807.5 15729.7 
290 8.5332 8.5332 0 0.00790954 0.00790954 -1.51503e-05 79.0954 11863.3 16945.8 
330 0.885 0.885 0 0.000319295 0.000319295 6.56612e-06 7.59297 2022.27 3077.73 
370 0.9772 0.9772 0 0.000338288 0.000338288 9.1444e-06 9.06707 2358.99 3387.33 
410 0.9944 0.9944 0 0.000325455 0.000325455 -7.18064e-06 9.33444 2372.69 3277.83 
450 0.9806 0.9806 0 0.000310159 0.000310159 -3.96484e-06 9.35713 2373.36 3257.63 
490 1.0112 1.0112 0 0.000305627 0.000305627 1.23971e-06 9.53182 2286.64 3117.65 
530 0.961 0.961 0 0.000296139 0.000296139 -1.00566e-06 9.07484 2219.44 2909.7 
570 0.8908 0.8908 0 0.000289089 0.000289089 -3.48954e-06 8.25872 2073.14 2708.77 
610 0.778 0.778 0 0.00030033 0.00030033 5.31779e-06 7.35851 1969.64 2541.57 
650 0.0476 0.0476 0 -3.88565e-05 -3.88565e-05 -3.50171e-07 0.388565 63.5658 99.9248 
690 0.0596 0.0596 0 -4.85479e-05 -4.85479e-05 -3.78262e-06 0.485479 57.0324 94.7611 
730 0.0718 0.0718 0 -6.11946e-05 -6.11946e-05 1.47223e-06 0.611946 84.4218 130.98 
770 0.0892 0.0892 0 -8.02672e-05 -8.02672e-05 -4.48874e-07 0.802672 80.8981 152.795 
810 0.0808 0.0808 0 -6.93104e-05 -6.93104e-05 5.04518e-06 0.693104 87.449 153.158 
850 0.071 0.071 0 -6.09134e-05 -6.09134e-05 2.94363e-06 0.609134 76.3761 130.664 
890 0.0626 0.0626 0 -5.22976e-05 -5.22976e-05 7.26132e-07 0.522976 74.6446 125.713 
930 0.0402 0.0402 0 -3.17101e-05 -3.17101e-05 -1.2437e-06 0.317101 49.0199 84.9401 
970 0.8016 0.8016 0 0.000290203 0.000290203 -5.17629e-07 7.61974 1945.29 2510.43 
1010 0.887 0.887 0 0.000289737 0.000289737 4.15685e-07 8.36808 2040.39 2690.26 
1050 0.9556 0.9556 0 0.000294825 0.000294825 -8.39914e-07 9.01133 2107.03 2812.47 
1090 0.9922 0.9922 0 0.000307924 0.000307924 8.12111e-06 9.40032 2369.78 3193.24 
1130 1.0216 1.0216 0 0.000315593 0.000315593 1.31509e-06 9.65873 2313.65 3149.6 
1170 1.001 1.001 0 0.000335879 0.000335879 2.86644e-07 9.53559 2559.69 3446.64 
1210 0.9964 0.9964 0 0.000350997 0.000350997 7.74196e-07 9.16583 2432.42 3439.99 
11 0.7706 0.7706 0 0.000798467 0.000798467 -9.14421e-06 39.6085 10908.1 15085.9 
51 8.9112 8.9112 0 0.00816556 0.00816556 -4.68553e-06 81.6556 11554.2 16593.3 
91 9.6216 9.6216 0 0.00859823 0.00859823 1.55613e-05 85.9823 10449.8 15104.5 
131 9.914 9.914 0 0.0088591 0.0088591 -9.99985e-06 88.591 10170.1 14617.6 
171 9.9416 9.9416 0 0.00881563 0.00881563 -1.51936e-05 88.1563 10109.4 14573.2 
211 9.849 9.849 0 0.00876944 0.00876944 -2.58466e-05 87.6944 10370.9 14878.5 
251 9.4778 9.4778 0 0.00852872 0.00852872 2.83914e-05 85.2872 10586.3 15350 
291 8.4978 8.4978 0 0.00788414 0.00788414 -1.43298e-05 78.8414 12057.6 17245.4 
331 0.8786 0.8786 0 0.000316274 0.000316274 -1.70305e-05 7.54006 1937.77 3031.53 
371 0.9532 0.9532 0 0.000313306 0.000313306 -3.94025e-06 8.89009 2280.1 3229.68 
411 1.0242 1.0242 0 0.00033251 0.00033251 -1.25892e-05 9.671 2534.41 3445.94 
451 1.007 1.007 0 0.000305301 0.000305301 8.41391e-06 9.43671 2322.16 3194.33 
491 0.9998 0.9998 0 0.000292849 0.000292849 1.33739e-05 9.44131 2135.84 2944.18 
531 0.985 0.985 0 0.000294341 0.000294341 -8.31096e-06 9.22666 2185.47 2966 
571 0.8878 0.8878 0 0.000268068 0.000268068 -1.16795e-05 8.38114 1883.04 2505.56 
611 0.781 0.781 0 0.00030281 0.00030281 -5.90905e-06 7.38737 1916.49 2445.43 
651 0.054 0.054 0 -4.27603e-05 -4.27603e-05 1.70047e-06 0.427603 77.8932 128.732 
691 0.0596 0.0596 0 -5.0497e-05 -5.0497e-05 1.36181e-06 0.50497 80.586 124.237 
731 0.0684 0.0684 0 -5.73624e-05 -5.73624e-05 1.59798e-06 0.573624 109.155 174.459 
771 0.0774 0.0774 0 -6.82728e-05 -6.82728e-05 1.84712e-07 0.682728 84.2357 139.911 
811 0.085 0.085 0 -7.37151e-05 -7.37151e-05 7.375e-08 0.737151 104.278 163.348 
851 0.071 0.071 0 -6.06756e-05 -6.06756e-05 1.06126e-06 0.606756 85.9036 147.728 
891 0.057 0.057 0 -4.68762e-05 -4.68762e-05 2.09578e-06 0.468762 60.7574 107.269 
931 0.048 0.048 0 -3.65546e-05 -3.65546e-05 -9.61773e-07 0.365546 64.1415 101.468 
971 0.789 0.789 0 0.000278761 0.000278761 -7.57883e-07 7.48769 1873.58 2472.14 
1011 0.9128 0.9128 0 0.000279812 0.000279812 8.16174e-06 8.49476 2018.19 2645.24 
1051 0.9512 0.9512 0 0.000286408 0.000286408 1.01738e-05 8.92379 2164.98 2844.47 
1091 0.9964 0.9964 0 0.000304052 0.000304052 9.70961e-07 9.43079 2271.43 3066.47 
1131 1.0118 1.0118 0 0.000309805 0.000309805 9.72684e-06 9.50693 2317.94 3206.17 
1171 0.9782 0.9782 0 0.000326052 0.000326052 -5.49502e-07 9.24259 2389.31 3254.95 
1211 0.9786 0.9786 0 0.000341098 0.000341098 1.00835e-06 9.05938 2370.19 3303.69 
12 0.8548 0.8548 0 0.000907566 0.000907566 -4.90131e-06 44.399 12141.4 16734.3 
52 9.0014 9.0014 0 0.0082205 0.0082205 -3.42226e-05 82.205 11382.2 16328 
92 9.6122 9.6122 0 0.0086086 0.0086086 1.7124e-05 86.086 10505 15199.9 
132 9.8574 9.8574 0 0.00876264 0.00876264 1.4719e-05 87.6264 10112.6 14637.2 
172 10.017 10.017 0 0.00887846 0.00887846 -3.44947e-06 88.7846 9955.54 14411.1 
212 9.8712 9.8712 0 0.00878277 0.00878277 -3.84666e-05 87.8277 10224.2 14843.7 
252 9.501 9.501 0 0.00856645 0.00856645 3.39964e-05 85.6645 10840.9 15636 
292 8.455 8.455 0 0.00785434 0.00785434 1.8093e-05 78.5434 11909.5 17046.9 
332 0.8688 0.8688 0 0.000315345 0.000315345 -3.49328e-06 7.61699 1962.49 2944.32 
372 0.9836 0.9836 0 0.000331426 0.000331426 -4.12946e-06 9.14589 2390.85 3307.91 
412 0.9964 0.9964 0 0.000324063 0.000324063 7.17195e-06 9.25314 2426.61 3310.54 
452 1.001 1.001 0 0.000302627 0.000302627 -1.72675e-05 9.42905 2267.1 3046.1 
492 0.999 0.999 0 0.000294213 0.000294213 1.19547e-05 9.58559 2237.38 3057.57 
532 0.9666 0.9666 0 0.000291273 0.000291273 7.1803e-06 9.17715 2163.98 2884.99 
572 0.8936 0.8936 0 0.000292234 0.000292234 2.05572e-07 8.3618 2023.38 2657.92 
612 0.759 0.759 0 0.000290536 0.000290536 -1.3866e-06 7.17693 1849.27 2409.38 
652 0.0546 0.0546 0 -4.4539e-05 -4.4539e-05 -2.35778e-06 0.44539 75.833 111.33 
692 0.0656 0.0656 0 -5.4624e-05 -5.4624e-05 7.03726e-07 0.54624 79.882 135.037 
732 0.075 0.075 0 -6.28281e-05 -6.28281e-05 -1.33129e-06 0.628281 81.5403 130.586 
772 0.083 0.083 0 -7.28249e-05 -7.28249e-05 -6.10568e-07 0.728249 99.4796 153.435 