ITEM: TIMESTEP
25000
ITEM: NUMBER OF SURFS
1260
ITEM: BOX BOUNDS oo rr pp
0 0.3
0 0.3
-0.5 0.5
ITEM: SURFS id f_4[1] f_4[2] f_4[3] f_4[4] f_4[5] f_4[6] f_4[7] f_4[8] f_4[9] 
1 0.0248 0.0248 0 1.70606e-06 1.70606e-06 -9.61117e-08 1.16191 591.884 672.627 
41 7.3644 7.3644 0 0.000966071 0.000966071 3.81465e-06 9.64136 3686.95 4361.36 
81 7.7518 7.7518 0 0.000961224 0.000961224 6.42251e-07 9.59299 3326.93 4023.39 
121 7.89 7.89 0 0.000955973 0.000955973 -1.56407e-06 9.54058 3256.58 3943.32 
161 7.9432 7.9432 0 0.000955131 0.000955131 -1.53574e-07 9.53218 3220.74 3922.89 
201 7.9436 7.9436 0 0.000959329 0.000959329 -1.57199e-06 9.57408 3201.39 3886.08 
241 7.8076 7.8076 0 0.000953311 0.000953311 -6.56746e-06 9.51402 3285.13 3964.35 
281 7.4442 7.4442 0 0.000961437 0.000961437 -2.94267e-06 9.59511 3622.3 4291.8 
321 0.0868 0.0868 0 1.23802e-05 1.23802e-05 4.18303e-08 6.20834 3051.63 3398.42 
361 0.9634 0.9634 0 6.38143e-05 6.38143e-05 2.39668e-07 0.906743 501.1 585.839 
401 0.9268 0.9268 0 6.21706e-05 6.21706e-05 -3.35879e-07 0.872929 477.501 552.805 
441 0.8868 0.8868 0 6.04289e-05 6.04289e-05 -1.36676e-08 0.829749 458.987 538.798 
481 0.8582 0.8582 0 6.00522e-05 6.00522e-05 -3.75543e-07 0.808758 447.761 518.821 
521 0.7978 0.7978 0 5.74047e-05 5.74047e-05 6.10646e-07 0.745822 430.983 492.244 
561 0.7804 0.7804 0 5.69556e-05 5.69556e-05 -5.69169e-07 0.728651 414.534 481.597 
601 0.7602 0.7602 0 5.88057e-05 5.88057e-05 -1.50355e-06 0.703312 422.971 479.462 
641 0.0002 0.0002 0 -1.13102e-08 -1.13102e-08 -2.9226e-09 0.00798232 0.14086 2.13446 
681 0.0036 0.0036 0 -1.86994e-07 -1.86994e-07 2.93001e-08 0.00186619 0.266989 0.333874 
721 0.004 0.004 0 -2.43645e-07 -2.43645e-07 -7.51239e-08 0.00243157 0.330319 0.937623 
761 0.0036 0.0036 0 -1.78028e-07 -1.78028e-07 1.9653e-08 0.00177671 -0.0242538 0.309599 
801 0.004 0.004 0 -2.37215e-07 -2.37215e-07 5.62318e-08 0.0023674 0.0407481 0.485098 
841 0.004 0.004 0 -2.76723e-07 -2.76723e-07 3.43516e-08 0.00276169 0.132118 0.61098 
881 0.003 0.003 0 -1.6615e-07 -1.6615e-07 7.6294e-08 0.00165817 0.337109 0.299123 
921 0.0036 0.0036 0 -2.45776e-07 -2.45776e-07 -1.83491e-08 0.00245284 0.172789 0.269507 
961 0.0134 0.0134 0 1.09975e-06 1.09975e-06 5.15721e-08 0.615552 384.643 422.07 
1001 0.7466 0.7466 0 5.75371e-05 5.75371e-05 -5.08313e-07 0.696456 424.403 480.892 
1041 0.7916 0.7916 0 5.71749e-05 5.71749e-05 -1.52135e-07 0.749709 432.84 493.801 
1081 0.8328 0.8328 0 5.79886e-05 5.79886e-05 -8.05424e-07 0.781889 438.307 503.306 
1121 0.8538 0.8538 0 5.80994e-05 5.80994e-05 -2.6216e-07 0.803138 444.55 514.734 
1161 0.8976 0.8976 0 6.03338e-05 6.03338e-05 -5.34641e-07 0.848611 463.499 539.68 
1201 0.9158 0.9158 0 6.21716e-05 6.21716e-05 -6.77986e-07 0.852243 476.3 557.866 
1241 0.9672 0.9672 0 6.31187e-05 6.31187e-05 -1.51378e-07 0.90117 490.707 577.39 
2 0.029 0.029 0 2.34735e-06 2.34735e-06 4.83185e-08 1.38368 883.64 993.332 
42 7.314 7.314 0 0.000951667 0.000951667 -4.75969e-06 9.49761 3606.18 4242.76 
82 7.676 7.676 0 0.000947424 0.000947424 1.42618e-06 9.45527 3325.45 4007.33 
122 7.9478 7.9478 0 0.000958857 0.000958857 3.85948e-06 9.56937 3258.61 3951.75 
162 7.9198 7.9198 0 0.000950393 0.000950393 3.3972e-07 9.4849 3173.11 3850.25 
202 7.934 7.934 0 0.000954939 0.000954939 1.74628e-06 9.53027 3203.31 3899.23 
242 7.7782 7.7782 0 0.000954698 0.000954698 -2.86061e-08 9.52786 3322.73 3994.96 
282 7.4516 7.4516 0 0.000963128 0.000963128 -1.23975e-06 9.61199 3528.3 4182.76 
322 0.0828 0.0828 0 1.1588e-05 1.1588e-05 -6.99873e-08 5.98553 2528.89 2908.06 
362 0.9548 0.9548 0 6.30707e-05 6.30707e-05 2.05926e-07 0.896264 496.122 583.8 
402 0.9134 0.9134 0 6.23524e-05 6.23524e-05 -1.83678e-08 0.858673 481.183 556.495 
442 0.8966 0.8966 0 6.30606e-05 6.30606e-05 1.04863e-06 0.839171 473.332 553.872 
482 0.867 0.867 0 6.05415e-05 6.05415e-05 4.66036e-08 0.812012 458.737 530.884 
522 0.8108 0.8108 0 5.68632e-05 5.68632e-05 -8.02089e-07 0.760384 418.21 482.667 
562 0.7916 0.7916 0 5.7644e-05 5.7644e-05 6.4044e-07 0.736984 427.053 492.477 
602 0.7502 0.7502 0 5.77177e-05 5.77177e-05 4.18856e-07 0.706736 424.871 482.156 
642 0.0002 0.0002 0 2.96402e-09 2.96402e-09 9.75138e-09 0.00236108 -1.07394 -1.3862 
682 0.004 0.004 0 -2.09106e-07 -2.09106e-07 -1.65153e-08 0.00208687 0.307482 0.388164 
722 0.0036 0.0036 0 -1.81122e-07 -1.81122e-07 1.97247e-09 0.00180759 0.030503 0.464425 
762 0.0042 0.0042 0 -2.76306e-07 -2.76306e-07 5.95559e-09 0.00275752 0.53013 1.6456 
802 0.0044 0.0044 0 -2.63794e-07 -2.63794e-07 -2.96351e-08 0.00263266 0.330192 0.655028 
842 0.0024 0.0024 0 -1.3473e-07 -1.3473e-07 5.93166e-09 0.00134461 -0.0375637 0.0137671 
882 0.003 0.003 0 -1.51339e-07 -1.51339e-07 1.13614e-08 0.00151036 0.380076 0.35477 
922 0.0042 0.0042 0 -2.63005e-07 -2.63005e-07 -6.76688e-09 0.00262478 0.0724647 0.0876838 
962 0.695 0.695 0 5.72904e-05 5.72904e-05 7.02148e-07 0.650118 425.834 480.411 
1002 0.7648 0.7648 0 5.86674e-05 5.86674e-05 4.47917e-07 0.716724 426.593 488.037 
1042 0.7888 0.7888 0 5.72544e-05 5.72544e-05 -1.50753e-08 0.733863 434.065 494.037 
1082 0.8292 0.8292 0 5.83569e-05 5.83569e-05 7.69536e-07 0.779674 437.054 501.806 
1122 0.8478 0.8478 0 5.91266e-05 5.91266e-05 8.61412e-07 0.798883 443.022 509.534 
1162 0.8944 0.8944 0 6.01272e-05 6.01272e-05 6.21295e-07 0.846358 459.199 531.774 
1202 0.9178 0.9178 0 6.15778e-05 6.15778e-05 -4.83937e-07 0.863731 472.746 551.874 
1242 0.9678 0.9678 0 6.25624e-05 6.25624e-05 -7.95321e-07 0.903892 489.315 579.72 
3 0.0334 0.0334 0 2.98008e-06 2.98008e-06 8.00804e-08 1.75429 1051.97 1267.16 
43 7.3944 7.3944 0 0.000969312 0.000969312 3.06778e-06 9.67371 3704.25 4347.97 
83 7.6756 7.6756 0 0.000944499 0.000944499 1.64285e-06 9.42608 3301.16 3968.69 
123 7.897 7.897 0 0.000950175 0.000950175 1.311e-06 9.48272 3274.94 3950.38 
163 7.9826 7.9826 0 0.000956408 0.000956408 -1.1203e-06 9.54493 3189.39 3893.48 
203 7.9836 7.9836 0 0.000962417 0.000962417 5.03207e-06 9.60489 3256.96 3946.52 
243 7.764 7.764 0 0.000952536 0.000952536 -1.11154e-06 9.50629 3311.51 3978.6 
283 7.4266 7.4266 0 0.000960218 0.000960218 1.19464e-06 9.58295 3589.14 4250.78 
323 0.0768 0.0768 0 1.08926e-05 1.08926e-05 -3.86036e-07 5.39965 2801.28 3243.65 
363 0.9586 0.9586 0 6.3089e-05 6.3089e-05 -1.13063e-07 0.886816 484.491 573.043 
403 0.9104 0.9104 0 6.13816e-05 6.13816e-05 -1.81054e-07 0.857587 480.938 564.319 
443 0.8864 0.8864 0 6.16404e-05 6.16404e-05 -4.22331e-08 0.826267 462.096 528.553 
483 0.8574 0.8574 0 6.09631e-05 6.09631e-05 1.24234e-06 0.807542 460.564 526.223 
523 0.8246 0.8246 0 5.90509e-05 5.90509e-05 -5.40976e-07 0.766305 444.943 513.388 
563 0.7788 0.7788 0 5.66464e-05 5.66464e-05 3.42895e-07 0.73357 420.625 477.457 
603 0.7434 0.7434 0 5.83344e-05 5.83344e-05 -3.68859e-07 0.692473 420.271 476.967 
643 0 0 0 0 0 0 0 0 0 
683 0.0044 0.0044 0 -2.55275e-07 -2.55275e-07 -8.59158e-08 0.00254763 0.305281 0.643508 
723 0.0046 0.0046 0 -2.87795e-07 -2.87795e-07 2.43633e-08 0.00287219 -0.00558863 0.321839 
763 0.004 0.004 0 -1.97101e-07 -1.97101e-07 1.75063e-08 0.00196706 0.370685 1.03285 
803 0.0036 0.0036 0 -2.3145e-07 -2.3145e-07 8.07867e-08 0.00230987 0.202823 0.571307 
843 0.0046 0.0046 0 -2.34481e-07 -2.34481e-07 6.87012e-09 0.00234012 0.104098 0.368672 
883 0.0034 0.0034 0 -1.78134e-07 -1.78134e-07 5.54957e-08 0.00177777 0.0802267 0.407084 
923 0.0038 0.0038 0 -2.03722e-07 -2.03722e-07 -3.67481e-08 0.00203314 0.419035 0.321794 
963 0.6894 0.6894 0 5.45985e-05 5.45985e-05 -2.80622e-08 0.644399 399.732 451.575 
1003 0.7646 0.7646 0 5.96469e-05 5.96469e-05 2.08963e-07 0.713986 438.881 503.552 
1043 0.7958 0.7958 0 5.76966e-05 5.76966e-05 -2.98735e-07 0.747589 423.658 485.967 
1083 0.841 0.841 0 5.83341e-05 5.83341e-05 1.02838e-06 0.789719 443.491 512.101 
1123 0.8576 0.8576 0 5.95102e-05 5.95102e-05 -5.3409e-07 0.803278 449.659 520.798 
1163 0.8986 0.8986 0 5.98604e-05 5.98604e-05 -2.69921e-07 0.846911 456.325 532.823 
1203 0.9226 0.9226 0 6.18047e-05 6.18047e-05 -3.52214e-07 0.864373 469.645 552.135 
1243 0.989 0.989 0 6.30237e-05 6.30237e-05 -1.18995e-06 0.92515 491.855 578.973 
4 0.0396 0.0396 0 3.87444e-06 3.87444e-06 -1.52634e-07 2.28266 1229.6 1399.31 
44 7.3388 7.3388 0 0.000957163 0.000957163 1.62397e-06 9.55246 3609.88 4252.71 
84 7.744 7.744 0 0.000952962 0.000952962 -1.15993e-06 9.51053 3333.55 3993.88 
124 7.9098 7.9098 0 0.000958157 0.000958157 -7.11311e-07 9.56239 3238.12 3945.32 
164 7.9304 7.9304 0 0.000943367 0.000943367 2.54946e-06 9.41478 3141.55 3826.89 
204 7.894 7.894 0 0.000952858 0.000952858 1.16032e-06 9.5095 3187.29 3882.28 
244 7.7512 7.7512 0 0.000949479 0.000949479 -8.1399e-07 9.47578 3319.56 3996.05 
284 7.3788 7.3788 0 0.000953099 0.000953099 -1.29201e-06 9.51191 3570.28 4218.29 
324 0.0648 0.0648 0 8.38276e-06 8.38276e-06 1.58182e-07 4.35312 2089.18 2355.09 
364 0.987 0.987 0 6.43669e-05 6.43669e-05 1.63369e-06 0.92302 496.138 578.282 
404 0.91 0.91 0 6.08085e-05 6.08085e-05 -1.55334e-08 0.848653 461.026 539.485 
444 0.9074 0.9074 0 6.44715e-05 6.44715e-05 1.12514e-07 0.857454 485.307 565.589 
484 0.8432 0.8432 0 5.93415e-05 5.93415e-05 -6.9438e-07 0.794746 439.876 503.075 
524 0.818 0.818 0 5.97335e-05 5.97335e-05 -9.38999e-07 0.772467 448.522 515.114 
564 0.7908 0.7908 0 5.81446e-05 5.81446e-05 3.26832e-07 0.7377 427.19 490.593 
604 0.7486 0.7486 0 5.70245e-05 5.70245e-05 -7.2355e-07 0.709465 420.106 481.143 
644 0.0004 0.0004 0 -3.16598e-08 -3.16598e-08 5.12336e-09 0.0154455 0.0582842 -2.77441 
684 0.0034 0.0034 0 -2.09099e-07 -2.09099e-07 -4.25127e-08 0.00208681 0.277296 0.480592 
724 0.003 0.003 0 -1.69789e-07 -1.69789e-07 3.99407e-09 0.00169449 0.255124 0.229596 
764 0.0038 0.0038 0 -2.78546e-07 -2.78546e-07 -3.74264e-08 0.00277988 0.0514609 0.0390289 
804 0.0038 0.0038 0 -2.37833e-07 -2.37833e-07 6.49087e-08 0.00237357 0.0979143 0.59579 
844 0.0022 0.0022 0 -1.1796e-07 -1.1796e-07 -1.37418e-08 0.00117723 0.209141 0.255778 
884 0.0038 0.0038 0 -2.25e-07 -2.25e-07 4.54932e-08 0.00224549 0.201691 0.726125 
924 0.0032 0.0032 0 -1.92487e-07 -1.92487e-07 -4.45878e-08 0.00192101 0.0145728 0.0342538 
964 0.7134 0.7134 0 5.76422e-05 5.76422e-05 1.98199e-07 0.672648 406.552 461.32 
1004 0.7694 0.7694 0 5.79755e-05 5.79755e-05 1.10246e-06 0.713763 415.817 476.335 
1044 0.7864 0.7864 0 5.81458e-05 5.81458e-05 1.37956e-06 0.740753 434.478 498.31 
1084 0.8176 0.8176 0 5.82213e-05 5.82213e-05 -8.76536e-07 0.77128 440.801 503.008 
1124 0.8586 0.8586 0 6.15589e-05 6.15589e-05 5.61766e-07 0.802168 454.241 524.347 
1164 0.8954 0.8954 0 6.09298e-05 6.09298e-05 6.18512e-07 0.842633 462.607 543.379 
1204 0.9228 0.9228 0 6.29932e-05 6.29932e-05 1.31233e-06 0.864469 480.847 557.382 
1244 0.9886 0.9886 0 6.17807e-05 6.17807e-05 -1.30788e-08 0.926023 484.803 572.972 
5 0.0468 0.0468 0 5.12645e-06 5.12645e-06 -2.28898e-07 2.76664 1540.98 1775.63 
45 7.367 7.367 0 0.000963013 0.000963013 1.61785e-06 9.61084 3612.05 4257.67 
85 7.8184 7.8184 0 0.000963486 0.000963486 2.37893e-06 9.61556 3370.49 4061.35 
125 8.0286 8.0286 0 0.000968929 0.000968929 -1.11439e-06 9.66989 3267.47 3979.66 
165 7.973 7.973 0 0.000958184 0.000958184 -1.49666e-06 9.56265 3197.77 3894.17 
205 7.9618 7.9618 0 0.000963813 0.000963813 -3.33329e-06 9.61883 3273.19 3961.25 
245 7.8038 7.8038 0 0.000960307 0.000960307 4.3378e-06 9.58383 3329.35 4005.24 
285 7.4704 7.4704 0 0.000962962 0.000962962 -1.58237e-06 9.61033 3602.35 4269.8 
325 0.0562 0.0562 0 7.06015e-06 7.06015e-06 1.44905e-07 3.47218 1915.79 2239.38 
365 0.9768 0.9768 0 6.43105e-05 6.43105e-05 9.44792e-07 0.910333 499.083 592.499 
405 0.9062 0.9062 0 6.09193e-05 6.09193e-05 1.50629e-06 0.86256 459.908 537.49 
445 0.8976 0.8976 0 6.24703e-05 6.24703e-05 1.1982e-06 0.848954 471.229 547.637 
485 0.8538 0.8538 0 6.05634e-05 6.05634e-05 -6.19161e-07 0.798828 449.536 515.95 
525 0.8286 0.8286 0 6.011e-05 6.011e-05 -1.19358e-06 0.775017 449.655 513.065 
565 0.7808 0.7808 0 5.77474e-05 5.77474e-05 -9.52386e-07 0.735798 430.636 489.804 
605 0.734 0.734 0 5.74713e-05 5.74713e-05 -1.7851e-08 0.694461 428.917 488.929 
645 0 0 0 0 0 0 0 0 0 
685 0.0052 0.0052 0 -3.12743e-07 -3.12743e-07 1.14076e-09 0.00312117 -0.0461191 0.175707 
725 0.0036 0.0036 0 -2.02286e-07 -2.02286e-07 2.20116e-08 0.00201881 0.047792 0.517659 
765 0.0044 0.0044 0 -2.6471e-07 -2.6471e-07 -2.40431e-08 0.0026418 0.321524 0.494266 
805 0.0038 0.0038 0 -2.08233e-07 -2.08233e-07 3.42337e-08 0.00207816 -0.00766334 0.337008 
845 0.0034 0.0034 0 -1.94638e-07 -1.94638e-07 4.36478e-08 0.00194248 0.0789978 0.527548 
885 0.0044 0.0044 0 -2.81967e-07 -2.81967e-07 2.5718e-08 0.00281402 0.130274 0.369484 
925 0.004 0.004 0 -2.14205e-07 -2.14205e-07 7.325e-09 0.00213776 0.0285664 0.317535 
965 0.6698 0.6698 0 5.42528e-05 5.42528e-05 6.11603e-07 0.627135 392.667 446.603 
1005 0.7632 0.7632 0 5.86515e-05 5.86515e-05 4.94506e-07 0.715951 437.332 499.827 
1045 0.8008 0.8008 0 5.87393e-05 5.87393e-05 -2.45478e-07 0.750367 433.606 501.955 
1085 0.8404 0.8404 0 6.10638e-05 6.10638e-05 -1.53707e-06 0.783252 460.546 529.99 
1125 0.88 0.88 0 6.14687e-05 6.14687e-05 2.92781e-07 0.819415 466.981 545.274 
1165 0.8732 0.8732 0 5.975e-05 5.975e-05 -1.37127e-07 0.817236 453.698 521.909 
1205 0.9348 0.9348 0 6.21054e-05 6.21054e-05 1.08326e-06 0.876315 474.622 551.364 
1245 1.009 1.009 0 6.4767e-05 6.4767e-05 -1.27368e-06 0.937365 504.834 598.934 
6 0.0566 0.0566 0 6.58843e-06 6.58843e-06 2.58372e-07 3.41031 1859.68 2233.24 
46 7.3732 7.3732 0 0.000956423 0.000956423 1.29175e-06 9.54508 3592.41 4257.33 
86 7.7264 7.7264 0 0.000953892 0.000953892 2.18865e-06 9.51982 3310.46 3995.17 
126 7.8956 7.8956 0 0.000949981 0.000949981 4.52967e-07 9.48079 3159.07 3859.89 
166 8.0002 8.0002 0 0.000956209 0.000956209 1.42539e-06 9.54294 3163.79 3858.16 
206 8.0458 8.0458 0 0.000971954 0.000971954 3.50156e-06 9.70007 3291.08 3985.51 
246 7.7926 7.7926 0 0.000959931 0.000959931 2.04419e-06 9.58009 3357.62 4039.82 
286 7.4112 7.4112 0 0.000961135 0.000961135 6.88507e-07 9.5921 3597.22 4256.35 
326 0.0524 0.0524 0 6.26463e-06 6.26463e-06 -1.61232e-07 3.1533 1713.92 1972.96 
366 0.964 0.964 0 6.41906e-05 6.41906e-05 -1.34963e-06 0.891396 499.766 591.738 
406 0.9104 0.9104 0 6.13241e-05 6.13241e-05 -8.99846e-07 0.849428 467.5 540.477 
446 0.8806 0.8806 0 6.11518e-05 6.11518e-05 -4.35469e-07 0.829047 468.347 538.53 
486 0.8608 0.8608 0 5.97194e-05 5.97194e-05 3.92005e-07 0.810661 445.337 518.694 
526 0.8246 0.8246 0 5.99489e-05 5.99489e-05 8.47509e-07 0.771643 447.027 518.569 
566 0.7902 0.7902 0 5.71219e-05 5.71219e-05 -1.28802e-07 0.737121 423.862 489.367 
606 0.7486 0.7486 0 5.71945e-05 5.71945e-05 -1.53824e-07 0.701779 416.186 476.951 
646 0.0002 0.0002 0 -1.20211e-08 -1.20211e-08 9.14547e-09 0.00607815 -1.0285 -2.89898 
686 0.0056 0.0056 0 -3.40443e-07 -3.40443e-07 5.81682e-08 0.00339762 0.306925 0.428762 
726 0.0032 0.0032 0 -2.23255e-07 -2.23255e-07 7.02281e-09 0.00222808 0.178811 0.395948 
766 0.0042 0.0042 0 -2.65909e-07 -2.65909e-07 -9.30209e-08 0.00265377 0.311833 0.464406 
806 0.0032 0.0032 0 -2.16742e-07 -2.16742e-07 3.39573e-08 0.00216308 0.155519 0.437115 
846 0.003 0.003 0 -1.97645e-07 -1.97645e-07 1.85486e-08 0.00197249 0.0303944 0.395126 
886 0.0044 0.0044 0 -2.526e-07 -2.526e-07 -9.57593e-08 0.00252095 0.246082 0.557996 
926 0.0038 0.0038 0 -2.26172e-07 -2.26172e-07 -4.43195e-08 0.00225719 0.23265 0.48583 
966 0.6994 0.6994 0 5.66753e-05 5.66753e-05 -4.75089e-07 0.656616 409.265 463.385 
1006 0.7552 0.7552 0 5.71385e-05 5.71385e-05 1.66285e-07 0.70639 415.737 477.87 
1046 0.8062 0.8062 0 5.86473e-05 5.86473e-05 4.89835e-07 0.756854 439.226 503.509 
1086 0.823 0.823 0 5.72077e-05 5.72077e-05 1.31505e-06 0.771961 430.812 499.125 
1126 0.8674 0.8674 0 6.22265e-05 6.22265e-05 9.19637e-07 0.801702 470.892 544.001 
1166 0.9114 0.9114 0 6.26539e-05 6.26539e-05 -3.54625e-07 0.85232 478.736 556.096 
1206 0.9354 0.9354 0 6.1871e-05 6.1871e-05 -6.98719e-07 0.870581 471.468 556.078 
1246 1.0034 1.0034 0 6.39745e-05 6.39745e-05 8.91309e-07 0.934129 491.814 582.528 
7 0.0626 0.0626 0 7.81396e-06 7.81396e-06 -3.14168e-07 3.93544 2204.31 2571.26 
47 7.4344 7.4344 0 0.000964101 0.000964101 3.88159e-07 9.62171 3628.31 4282.88 
87 7.7274 7.7274 0 0.000948571 0.000948571 -1.32805e-06 9.46671 3356.01 4049 
127 7.9488 7.9488 0 0.000958408 0.000958408 -1.4457e-06 9.56488 3206.88 3894.63 
167 8.0172 8.0172 0 0.000961643 0.000961643 -2.3886e-06 9.59718 3232.6 3930.76 
207 7.9426 7.9426 0 0.000955159 0.000955159 -2.35903e-06 9.53246 3225.89 3919.65 
247 7.7322 7.7322 0 0.000951193 0.000951193 2.5882e-07 9.49288 3316.09 3968.93 
287 7.4092 7.4092 0 0.000966004 0.000966004 1.36013e-06 9.64069 3640.24 4294 
327 0.047 0.047 0 5.28958e-06 5.28958e-06 1.6314e-07 2.76511 1580.09 1871.74 
367 0.9362 0.9362 0 6.29449e-05 6.29449e-05 -3.98246e-07 0.871996 477.073 560.467 
407 0.9108 0.9108 0 6.29609e-05 6.29609e-05 -3.67897e-07 0.858705 481.627 553.764 
447 0.9096 0.9096 0 6.3465e-05 6.3465e-05 5.90465e-07 0.849057 483.502 557.771 
487 0.8712 0.8712 0 6.22977e-05 6.22977e-05 4.97109e-07 0.808355 468.168 542.696 
527 0.8242 0.8242 0 6.20409e-05 6.20409e-05 6.14286e-07 0.767283 464.546 529.228 
567 0.7776 0.7776 0 5.74607e-05 5.74607e-05 4.06779e-07 0.72854 426.473 485.955 
607 0.7428 0.7428 0 5.82297e-05 5.82297e-05 1.95123e-07 0.698238 420.746 480.065 
647 0.0058 0.0058 0 -3.43926e-07 -3.43926e-07 -1.66655e-09 0.00343238 0.0611871 0.224284 
687 0.0058 0.0058 0 -3.32938e-07 -3.32938e-07 3.77041e-08 0.00332271 0.451639 0.594413 
727 0.0028 0.0028 0 -1.60651e-07 -1.60651e-07 4.18919e-08 0.0016033 0.281044 0.37877 
767 0.0048 0.0048 0 -2.93531e-07 -2.93531e-07 1.55761e-08 0.00292943 0.175384 0.553607 
807 0.003 0.003 0 -2.05214e-07 -2.05214e-07 -4.41902e-08 0.00204803 0.205092 0.530569 
847 0.0044 0.0044 0 -2.70162e-07 -2.70162e-07 4.64876e-08 0.00269621 0.094727 0.151917 
887 0.005 0.005 0 -3.13513e-07 -3.13513e-07 1.97987e-08 0.00312885 0.394145 0.621533 
927 0.0034 0.0034 0 -2.57757e-07 -2.57757e-07 -1.27587e-09 0.00257241 0.295232 0.440587 
967 0.6994 0.6994 0 5.56699e-05 5.56699e-05 -2.33638e-07 0.660312 410.432 460.888 
1007 0.7548 0.7548 0 5.79435e-05 5.79435e-05 5.01893e-07 0.707687 425.769 491.044 
1047 0.7818 0.7818 0 5.65707e-05 5.65707e-05 -1.34214e-06 0.725147 417.058 476.129 
1087 0.8592 0.8592 0 6.1487e-05 6.1487e-05 3.71895e-07 0.804079 462.874 532.675 
1127 0.8726 0.8726 0 6.0151e-05 6.0151e-05 7.54088e-07 0.805344 444.376 515.135 
1167 0.9034 0.9034 0 6.14336e-05 6.14336e-05 2.50837e-07 0.845869 473.837 545.542 
1207 0.9564 0.9564 0 6.51205e-05 6.51205e-05 -3.31079e-07 0.895907 497.769 581.578 
1247 1.0094 1.0094 0 6.50016e-05 6.50016e-05 8.55511e-07 0.934793 493.871 586.94 
8 0.0716 0.0716 0 9.15166e-06 9.15166e-06 5.17641e-08 4.71245 2239.64 2564.21 
48 7.4578 7.4578 0 0.000966095 0.000966095 -1.89831e-06 9.6416 3620.45 4300.1 
88 7.7892 7.7892 0 0.000955126 0.000955126 -4.69813e-07 9.53213 3335.69 3993.93 
128 7.8804 7.8804 0 0.000949703 0.000949703 -2.55607e-06 9.47801 3193.48 3885.3 
168 8.012 8.012 0 0.000964324 0.000964324 1.10782e-06 9.62392 3227.56 3917.8 
208 7.8984 7.8984 0 0.000957196 0.000957196 -1.71502e-06 9.55279 3234.51 3914.33 
248 7.7758 7.7758 0 0.000959469 0.000959469 2.49084e-07 9.57547 3349.51 4033.54 
288 7.3576 7.3576 0 0.000959622 0.000959622 -2.24303e-06 9.57701 3619.49 4271.73 
328 0.0404 0.0404 0 4.24718e-06 4.24718e-06 -3.18521e-07 2.24288 1301.95 1495.61 
368 0.9598 0.9598 0 6.38403e-05 6.38403e-05 -8.08426e-07 0.898535 486.397 572.179 
408 0.9136 0.9136 0 6.17796e-05 6.17796e-05 -1.58124e-06 0.854445 473.229 552.147 
448 0.885 0.885 0 6.09072e-05 6.09072e-05 4.62435e-07 0.831063 464.44 534.746 
488 0.8542 0.8542 0 6.0403e-05 6.0403e-05 9.66648e-07 0.804934 459.954 533.471 
528 0.8056 0.8056 0 5.57964e-05 5.57964e-05 7.94599e-07 0.759985 417.907 479.2 
568 0.7814 0.7814 0 5.6985e-05 5.6985e-05 8.06878e-07 0.727169 429.272 492.611 
608 0.7576 0.7576 0 5.97355e-05 5.97355e-05 -1.2204e-06 0.711799 437.276 497.7 
648 0.006 0.006 0 -3.31711e-07 -3.31711e-07 1.02894e-07 0.00331047 0.334766 0.504509 
688 0.0028 0.0028 0 -1.54728e-07 -1.54728e-07 1.95217e-08 0.00154418 0.0152138 0.288944 
728 0.0034 0.0034 0 -2.03728e-07 -2.03728e-07 1.16981e-08 0.0020332 -0.25636 -0.00996801 
768 0.0044 0.0044 0 -2.76973e-07 -2.76973e-07 -5.74297e-08 0.00276419 0.477136 0.746132 
808 0.0024 0.0024 0 -1.441e-07 -1.441e-07 5.37669e-08 0.00143811 0.101265 0.113326 
848 0.005 0.005 0 -2.82937e-07 -2.82937e-07 7.10074e-08 0.0028237 0.394584 0.978946 
888 0.004 0.004 0 -2.75281e-07 -2.75281e-07 6.24084e-08 0.0027473 0.126478 0.43447 
928 0.004 0.004 0 -2.17432e-07 -2.17432e-07 -1.28585e-08 0.00216997 0.48677 1.00069 
968 0.7234 0.7234 0 5.81729e-05 5.81729e-05 -7.87663e-08 0.684888 424.587 483.754 
1008 0.7634 0.7634 0 5.61441e-05 5.61441e-05 -3.53457e-07 0.713407 404.933 463.869 
1048 0.8014 0.8014 0 5.74936e-05 5.74936e-05 4.38456e-07 0.749641 418.042 480.475 
1088 0.8088 0.8088 0 5.69356e-05 5.69356e-05 8.07679e-07 0.759192 424.934 493.303 
1128 0.8558 0.8558 0 5.96047e-05 5.96047e-05 7.00135e-07 0.797786 455.415 526.026 
1168 0.8904 0.8904 0 6.11077e-05 6.11077e-05 -1.02497e-06 0.834418 470.24 544.608 
1208 0.9148 0.9148 0 6.25511e-05 6.25511e-05 1.71845e-07 0.857364 478.226 560.66 
1248 0.9974 0.9974 0 6.37964e-05 6.37964e-05 -1.51426e-07 0.92879 497.437 587.543 
9 0.0754 0.0754 0 1.04676e-05 1.04676e-05 2.11911e-07 5.19453 2559.99 2991.53 
49 7.4392 7.4392 0 0.000953528 0.000953528 2.23885e-06 9.51618 3547.03 4205.91 
89 7.7518 7.7518 0 0.000950747 0.000950747 -1.78887e-06 9.48843 3330.83 4001.28 
129 7.9086 7.9086 0 0.000957519 0.000957519 3.89159e-07 9.55602 3192.77 3869.59 
169 8.0684 8.0684 0 0.000966997 0.000966997 3.02112e-06 9.65061 3263.29 3949.8 
209 7.8624 7.8624 0 0.000953151 0.000953151 5.17998e-07 9.51242 3161.68 3840.92 
249 7.759 7.759 0 0.000963122 0.000963122 1.66529e-06 9.61194 3394.82 4086.56 
289 7.3812 7.3812 0 0.000963202 0.000963202 -2.92692e-07 9.61273 3606.19 4256.83 
329 0.0328 0.0328 0 2.77917e-06 2.77917e-06 -1.51047e-07 1.68098 796.818 939.451 
369 0.958 0.958 0 6.28657e-05 6.28657e-05 8.60147e-07 0.890556 478.26 563.429 
409 0.9186 0.9186 0 6.18049e-05 6.18049e-05 -7.91948e-07 0.855789 468.783 552.411 
449 0.8596 0.8596 0 6.04694e-05 6.04694e-05 -2.83853e-07 0.801821 457.769 534.856 
489 0.8486 0.8486 0 5.97111e-05 5.97111e-05 -3.35617e-07 0.79732 450.667 520.312 
529 0.8064 0.8064 0 5.81838e-05 5.81838e-05 -1.50105e-07 0.754728 440.608 504.096 
569 0.7874 0.7874 0 5.85971e-05 5.85971e-05 -8.87962e-07 0.738953 443.046 505.009 
609 0.752 0.752 0 5.95292e-05 5.95292e-05 -9.41347e-08 0.696066 441.067 503.547 
649 0.0066 0.0066 0 -3.89287e-07 -3.89287e-07 -1.76706e-08 0.00388507 -0.181747 0.193785 
689 0.0048 0.0048 0 -3.21162e-07 -3.21162e-07 -2.0338e-08 0.00320519 0.292166 0.899622 
729 0.004 0.004 0 -2.14334e-07 -2.14334e-07 -5.33073e-09 0.00213904 0.189453 0.383712 
769 0.0054 0.0054 0 -3.25335e-07 -3.25335e-07 -5.45309e-08 0.00324684 0.382291 0.735292 
809 0.0036 0.0036 0 -2.43687e-07 -2.43687e-07 7.1177e-08 0.00243199 0.213732 0.331138 
849 0.0052 0.0052 0 -2.48983e-07 -2.48983e-07 4.10737e-08 0.00248485 0.204901 0.448245 
889 0.007 0.007 0 -4.63672e-07 -4.63672e-07 -5.54736e-08 0.00462743 0.425022 1.02034 
929 0.0032 0.0032 0 -1.95522e-07 -1.95522e-07 -1.98716e-08 0.0019513 0.017847 0.475334 
969 0.7132 0.7132 0 5.5762e-05 5.5762e-05 -5.29246e-07 0.672132 406.714 463.36 
1009 0.7794 0.7794 0 5.80432e-05 5.80432e-05 -2.99982e-07 0.73573 437.453 497.007 
1049 0.8172 0.8172 0 5.90657e-05 5.90657e-05 -3.91854e-07 0.765383 446.125 507.243 
1089 0.8522 0.8522 0 6.04027e-05 6.04027e-05 -2.39252e-07 0.795273 457.537 526.437 
1129 0.8878 0.8878 0 6.26215e-05 6.26215e-05 -2.41337e-07 0.831721 477.116 547.508 
1169 0.8998 0.8998 0 6.24519e-05 6.24519e-05 -6.02963e-07 0.844626 469.304 551.095 
1209 0.9468 0.9468 0 6.45882e-05 6.45882e-05 6.5426e-07 0.889743 489.927 575.269 
1249 1.0024 1.0024 0 6.30573e-05 6.30573e-05 -6.65957e-09 0.932864 488.938 578.944 
10 0.0908 0.0908 0 1.23709e-05 1.23709e-05 1.09942e-07 6.31801 2932.08 3342.29 
50 7.4316 7.4316 0 0.000955867 0.000955867 -9.90343e-07 9.53953 3572 4232.91 
90 7.7632 7.7632 0 0.000957397 0.000957397 -1.5954e-06 9.55479 3328.54 4005.19 
130 7.9128 7.9128 0 0.000952982 0.000952982 -2.63471e-06 9.51073 3190.81 3861.09 
170 7.9676 7.9676 0 0.000954541 0.000954541 -3.27761e-06 9.52629 3223.38 3912.66 
210 7.9472 7.9472 0 0.000956365 0.000956365 -9.41464e-07 9.5445 3261.06 3968.21 
250 7.669 7.669 0 0.000947717 0.000947717 1.74624e-06 9.45819 3324.09 4017.1 
290 7.4174 7.4174 0 0.000968435 0.000968435 -2.15833e-06 9.66496 3694.39 4347.92 
330 0.0254 0.0254 0 2.08863e-06 2.08863e-06 1.17146e-07 1.23987 693.851 807.32 
370 0.9622 0.9622 0 6.55967e-05 6.55967e-05 -3.31207e-08 0.901799 507.251 597.244 
410 0.917 0.917 0 6.32363e-05 6.32363e-05 -1.24863e-06 0.867064 493.445 577.014 
450 0.899 0.899 0 6.29234e-05 6.29234e-05 -1.14194e-06 0.850516 473.611 552.474 
490 0.845 0.845 0 6.00207e-05 6.00207e-05 3.958e-07 0.790813 444.599 518.138 
530 0.8224 0.8224 0 6.03892e-05 6.03892e-05 -4.91016e-07 0.76705 453.694 520.576 
570 0.7674 0.7674 0 5.80072e-05 5.80072e-05 7.39118e-07 0.705045 426.1 485.996 
610 0.7494 0.7494 0 5.97457e-05 5.97457e-05 4.97413e-07 0.701101 436.497 497.333 
650 0.0052 0.0052 0 -3.12896e-07 -3.12896e-07 -2.69839e-08 0.00312269 0.0247901 0.682598 
690 0.0034 0.0034 0 -2.38152e-07 -2.38152e-07 6.33299e-08 0.00237675 0.350571 0.709499 
730 0.004 0.004 0 -2.28903e-07 -2.28903e-07 1.1347e-08 0.00228445 0.452575 0.786585 
770 0.0022 0.0022 0 -1.33714e-07 -1.33714e-07 -4.09571e-09 0.00133447 -0.0686223 0.00293297 
810 0.0042 0.0042 0 -2.17442e-07 -2.17442e-07 -6.04143e-08 0.00217007 0.231329 0.416375 
850 0.0046 0.0046 0 -2.8955e-07 -2.8955e-07 5.25801e-08 0.0028897 0.144381 0.456324 
890 0.005 0.005 0 -3.02292e-07 -3.02292e-07 2.30226e-08 0.00301686 0.0660291 0.385629 
930 0.0046 0.0046 0 -2.4854e-07 -2.4854e-07 -3.1756e-08 0.00248042 0.456932 0.857188 
970 0.7006 0.7006 0 5.52711e-05 5.52711e-05 3.16319e-07 0.656664 394.55 448.099 
1010 0.7856 0.7856 0 5.97373e-05 5.97373e-05 -3.54544e-07 0.735436 447.477 511.418 
1050 0.809 0.809 0 5.81483e-05 5.81483e-05 -8.05591e-07 0.756004 432.433 499.441 
1090 0.8192 0.8192 0 5.76478e-05 5.76478e-05 1.20191e-07 0.772862 433.524 501.537 
1130 0.884 0.884 0 6.29393e-05 6.29393e-05 -9.55318e-07 0.83023 471.833 548.799 
1170 0.8972 0.8972 0 6.08e-05 6.08e-05 2.1241e-07 0.840213 462.677 537.396 
1210 0.9346 0.9346 0 6.45759e-05 6.45759e-05 -5.52529e-07 0.866954 489.026 572 
1250 1.0166 1.0166 0 6.53001e-05 6.53001e-05 1.04034e-06 0.941628 507.367 602.325 
11 0.0922 0.0922 0 1.31137e-05 1.31137e-05 1.02193e-07 6.53158 2970.34 3404.51 
51 7.4518 7.4518 0 0.000957944 0.000957944 -1.17162e-06 9.56026 3566.07 4232.38 
91 7.783 7.783 0 0.0009575 0.0009575 -2.24805e-06 9.55582 3331.82 3999.54 
131 7.9392 7.9392 0 0.000957706 0.000957706 -1.16857e-06 9.55788 3197.23 3880.3 
171 7.9664 7.9664 0 0.000955996 0.000955996 -2.02221e-06 9.54082 3175.86 3884.71 
211 7.9764 7.9764 0 0.000966053 0.000966053 -2.12523e-07 9.64118 3264.59 3948.95 
251 7.773 7.773 0 0.000963225 0.000963225 4.84281e-07 9.61296 3405.22 4067.09 
291 7.3758 7.3758 0 0.00096474 0.00096474 1.5126e-06 9.62807 3656.36 4310.95 
331 0.024 0.024 0 1.60726e-06 1.60726e-06 2.31214e-08 1.02715 604.198 750.273 
371 0.9564 0.9564 0 6.26618e-05 6.26618e-05 -6.56165e-07 0.902905 485.429 565.733 
411 0.9254 0.9254 0 6.32377e-05 6.32377e-05 -3.1477e-07 0.87811 493.383 568.19 
451 0.8794 0.8794 0 6.22505e-05 6.22505e-05 3.04883e-08 0.827133 465.121 536.294 
491 0.837 0.837 0 5.90907e-05 5.90907e-05 -5.03661e-07 0.781717 439.127 506.299 
531 0.8208 0.8208 0 5.9911e-05 5.9911e-05 9.94298e-07 0.767819 446.836 515.051 
571 0.777 0.777 0 5.63542e-05 5.63542e-05 2.22882e-07 0.729888 424.938 477.988 
611 0.7452 0.7452 0 5.77663e-05 5.77663e-05 1.20179e-06 0.698453 420.301 477.336 
651 0.0042 0.0042 0 -2.74774e-07 -2.74774e-07 -7.53079e-09 0.00274224 0.00303519 0.296815 
691 0.0024 0.0024 0 -1.52442e-07 -1.52442e-07 2.50336e-08 0.00152137 0.140243 0.449766 
731 0.0038 0.0038 0 -2.42462e-07 -2.42462e-07 -3.46116e-08 0.00241976 -0.0337553 -0.089299 
771 0.0044 0.0044 0 -2.59674e-07 -2.59674e-07 -1.47201e-07 0.00259154 0.368801 0.641284 
811 0.0058 0.0058 0 -3.98363e-07 -3.98363e-07 -1.36153e-09 0.00397566 -0.114777 0.234118 
851 0.004 0.004 0 -2.43965e-07 -2.43965e-07 -5.86421e-09 0.00243477 0.130744 0.149735 
891 0.0044 0.0044 0 -2.41937e-07 -2.41937e-07 -5.50785e-08 0.00241453 0.42823 0.718492 
931 0.0052 0.0052 0 -2.89528e-07 -2.89528e-07 -1.21059e-08 0.00288948 0.108954 0.388813 
971 0.7228 0.7228 0 5.78721e-05 5.78721e-05 -1.03733e-06 0.677001 416.08 473.315 
1011 0.7736 0.7736 0 5.8221e-05 5.8221e-05 -1.25379e-06 0.723068 420.022 479.23 
1051 0.832 0.832 0 6.09539e-05 6.09539e-05 -5.09563e-07 0.774963 452.862 517.762 
1091 0.8564 0.8564 0 6.06658e-05 6.06658e-05 -8.19525e-07 0.809569 448.774 516.131 
1131 0.874 0.874 0 6.09763e-05 6.09763e-05 2.94118e-07 0.81919 455.606 528.967 
1171 0.9008 0.9008 0 6.18173e-05 6.18173e-05 -6.69379e-07 0.844753 467.529 551.059 
1211 0.9704 0.9704 0 6.48884e-05 6.48884e-05 -2.80452e-07 0.907184 498.445 587.767 
1251 1.016 1.016 0 6.45065e-05 6.45065e-05 2.59828e-07 0.95312 492.931 592.593 
12 0.1052 0.1052 0 1.52343e-05 1.52343e-05 2.73147e-07 7.543 3539.34 4073.67 
52 7.4952 7.4952 0 0.000964821 0.000964821 5.47376e-07 9.62889 3576.52 4256.52 
92 7.809 7.809 0 0.000959985 0.000959985 -9.54919e-07 9.58062 3320.98 3994.34 
132 7.9466 7.9466 0 0.000955481 0.000955481 -3.31605e-06 9.53567 3205.95 3896.46 
172 8 8 0 0.000962389 0.000962389 -9.04777e-07 9.60462 3201.25 3895.06 
212 7.9404 7.9404 0 0.000955286 0.000955286 9.76163e-07 9.53373 3241.47 3922.98 
252 7.7916 7.7916 0 0.000962645 0.000962645 -1.68219e-06 9.60717 3392.42 4081.64 
292 7.2912 7.2912 0 0.000959811 0.000959811 1.87871e-06 9.57889 3649.35 4284.41 
332 1.032 1.032 0 6.3416e-05 6.3416e-05 1.43877e-07 0.959409 488.269 577.937 