ITEM: TIMESTEP
25000
ITEM: NUMBER OF SURFS
1272
ITEM: BOX BOUNDS oo rr pp
0 0.3
0 0.3
-0.5 0.5
ITEM: SURFS id f_4[1] f_4[2] f_4[3] f_4[4] f_4[5] f_4[6] f_4[7] f_4[8] f_4[9] 
1 0.1348 0.1348 0 3.46503e-05 3.46503e-05 -1.58971e-07 6.2753 2112.88 2994.48 
41 8.3574 8.3574 0 0.00410468 0.00410468 -8.91019e-06 41.0468 8302.12 11740.6 
81 9.0864 9.0864 0 0.0043198 0.0043198 -1.10076e-05 43.198 7405.18 10626.6 
121 9.4756 9.4756 0 0.00445256 0.00445256 1.61209e-05 44.5256 7041.7 10130.7 
161 9.5124 9.5124 0 0.00445939 0.00445939 -9.16313e-06 44.5939 6992.77 10071.6 
201 9.5984 9.5984 0 0.00450153 0.00450153 3.40345e-06 45.0153 7073.57 10243.9 
241 9.2772 9.2772 0 0.00436907 0.00436907 -8.29046e-06 43.6907 7286.39 10487.8 
281 8.7226 8.7226 0 0.00423574 0.00423574 -5.37276e-06 42.3574 7881.75 11220.9 
321 0.5068 0.5068 0 0.000288425 0.000288425 5.58031e-06 28.3666 8847.98 12239 
361 1.0312 1.0312 0 0.000201542 0.000201542 1.48189e-06 4.76465 1452.6 2115.56 
401 1.0532 1.0532 0 0.000216517 0.000216517 -6.03099e-06 4.96802 1548.55 2115.83 
441 1.0332 1.0332 0 0.000207118 0.000207118 -7.37069e-07 4.92699 1531.25 2061.8 
481 0.9782 0.9782 0 0.000195863 0.000195863 8.13119e-07 4.68691 1454.25 1932.42 
521 0.9596 0.9596 0 0.000194391 0.000194391 -3.09604e-06 4.58721 1367.27 1845.24 
561 0.9186 0.9186 0 0.000193868 0.000193868 -6.46928e-06 4.39665 1346.07 1764.8 
601 0.8232 0.8232 0 0.00018155 0.00018155 -6.15837e-07 3.96389 1262.28 1657.68 
641 0.0204 0.0204 0 9.54788e-07 9.54788e-07 3.17525e-07 0.843036 337.218 482.64 
681 0.0274 0.0274 0 -1.05437e-05 -1.05437e-05 -3.71629e-07 0.105437 11.735 25.0539 
721 0.035 0.035 0 -1.31057e-05 -1.31057e-05 -4.19336e-07 0.131057 15.41 38.1533 
761 0.0338 0.0338 0 -1.29829e-05 -1.29829e-05 9.23164e-08 0.129829 12.19 29.3221 
801 0.0326 0.0326 0 -1.35539e-05 -1.35539e-05 -1.0582e-06 0.135539 18.7674 34.4783 
841 0.031 0.031 0 -1.30622e-05 -1.30622e-05 -1.28554e-08 0.130622 14.6071 30.2833 
881 0.0364 0.0364 0 -1.35423e-05 -1.35423e-05 -4.81991e-07 0.135423 18.8682 39.3231 
921 0.0286 0.0286 0 -1.08675e-05 -1.08675e-05 8.30673e-07 0.108675 14.4111 29.1381 
961 0.0088 0.0088 0 -7.57947e-07 -7.57947e-07 -1.99524e-07 0.31219 78.0521 115.595 
1001 0.787 0.787 0 0.000178439 0.000178439 3.94175e-07 3.79411 1210.36 1567.28 
1041 0.8944 0.8944 0 0.000184281 0.000184281 1.18155e-07 4.30065 1316.6 1742.55 
1081 0.9488 0.9488 0 0.000184162 0.000184162 -1.25105e-06 4.53732 1373.22 1855.14 
1121 0.9954 0.9954 0 0.000201244 0.000201244 -1.39937e-06 4.74325 1441.99 1936.59 
1161 1.0408 1.0408 0 0.000205729 0.000205729 -1.98257e-06 4.92856 1511.69 2044.4 
1201 1.058 1.058 0 0.000211208 0.000211208 2.22713e-06 4.95944 1539.19 2168.25 
1241 1.062 1.062 0 0.000214288 0.000214288 -9.97616e-07 4.92119 1542.61 2206.6 
2 0.1506 0.1506 0 4.64167e-05 4.64167e-05 1.29708e-07 7.082 2341.6 3461.92 
42 8.4454 8.4454 0 0.00413441 0.00413441 -1.50997e-05 41.3441 8259.91 11746.6 
82 9.1922 9.1922 0 0.00434741 0.00434741 -5.84019e-06 43.4741 7223.34 10413.2 
122 9.509 9.509 0 0.00448347 0.00448347 1.37212e-06 44.8347 7228.54 10455.2 
162 9.5764 9.5764 0 0.00448285 0.00448285 1.4685e-06 44.8285 7088.41 10111.3 
202 9.471 9.471 0 0.00444595 0.00444595 8.06615e-06 44.4595 6997.52 10120.1 
242 9.2744 9.2744 0 0.00437456 0.00437456 1.37325e-05 43.7456 7291.59 10546.9 
282 8.6556 8.6556 0 0.00419583 0.00419583 -1.07454e-05 41.9583 7915.84 11322.6 
322 0.4462 0.4462 0 0.000250522 0.000250522 -9.0633e-08 24.7012 8369.09 11405 
362 1.0586 1.0586 0 0.000218797 0.000218797 -6.25789e-06 4.96957 1585.7 2242.45 
402 1.0312 1.0312 0 0.000208422 0.000208422 -5.89933e-07 4.87877 1546.99 2169.24 
442 1.0336 1.0336 0 0.000198275 0.000198275 4.43127e-06 4.87281 1496.92 2022.63 
482 1.0214 1.0214 0 0.000203307 0.000203307 -1.10948e-06 4.87428 1490.9 2022.69 
522 0.9596 0.9596 0 0.000192189 0.000192189 -4.8878e-07 4.58564 1380.3 1823.17 
562 0.927 0.927 0 0.000191492 0.000191492 1.99874e-06 4.4486 1392.82 1799.99 
602 0.817 0.817 0 0.000184637 0.000184637 -2.41121e-06 3.91236 1237.31 1623.04 
642 0.0174 0.0174 0 -2.39211e-07 -2.39211e-07 3.67703e-09 0.643783 180.289 256.46 
682 0.0322 0.0322 0 -1.20166e-05 -1.20166e-05 1.95834e-07 0.120166 20.0057 36.5566 
722 0.0344 0.0344 0 -1.47946e-05 -1.47946e-05 5.47436e-07 0.147946 18.8367 34.6271 
762 0.0346 0.0346 0 -1.40454e-05 -1.40454e-05 -7.1771e-07 0.140454 24.6275 42.4914 
802 0.0324 0.0324 0 -1.28776e-05 -1.28776e-05 -7.93592e-07 0.128776 17.2505 27.1962 
842 0.0386 0.0386 0 -1.42651e-05 -1.42651e-05 9.21891e-07 0.142651 19.5463 39.3727 
882 0.0302 0.0302 0 -1.20773e-05 -1.20773e-05 3.43296e-07 0.120773 14.791 30.704 
922 0.0312 0.0312 0 -1.1574e-05 -1.1574e-05 4.77621e-07 0.11574 15.1613 31.328 
962 0.0134 0.0134 0 -8.51951e-07 -8.51951e-07 1.18151e-08 0.506587 151.006 204.266 
1002 0.8162 0.8162 0 0.000188041 0.000188041 -2.2947e-07 3.90488 1235.14 1606.99 
1042 0.8948 0.8948 0 0.00018196 0.00018196 1.88364e-06 4.23929 1277.68 1696.93 
1082 0.948 0.948 0 0.000189825 0.000189825 -3.85264e-06 4.50784 1370.45 1845.87 
1122 0.9698 0.9698 0 0.000183075 0.000183075 1.01308e-06 4.59645 1372.29 1867.67 
1162 1.0142 1.0142 0 0.000196677 0.000196677 -5.3062e-06 4.85159 1493.78 2027.01 
1202 1.051 1.051 0 0.000214017 0.000214017 5.44823e-07 4.99783 1553.63 2154.03 
1242 1.094 1.094 0 0.000222898 0.000222898 -5.0037e-07 5.06479 1605.56 2295.28 
3 0.185 0.185 0 6.46763e-05 6.46763e-05 1.13326e-06 9.14788 2879.42 4138.03 
43 8.4188 8.4188 0 0.00414052 0.00414052 1.7823e-05 41.4052 8057.06 11467.8 
83 9.2046 9.2046 0 0.00437693 0.00437693 -2.64911e-06 43.7693 7513.23 10675.6 
123 9.5038 9.5038 0 0.00445994 0.00445994 7.16031e-06 44.5994 7209.23 10328.8 
163 9.6244 9.6244 0 0.00449602 0.00449602 1.10004e-05 44.9602 6947.74 10073.7 
203 9.5422 9.5422 0 0.00446953 0.00446953 -2.16854e-05 44.6953 7044.55 10130.6 
243 9.33 9.33 0 0.00440784 0.00440784 -1.90618e-05 44.0784 7329.81 10524.3 
283 8.6774 8.6774 0 0.00420791 0.00420791 -5.76641e-06 42.0791 8017.29 11332.9 
323 0.4254 0.4254 0 0.000235269 0.000235269 1.34633e-06 23.4977 7990.1 10864.7 
363 1.0722 1.0722 0 0.00021957 0.00021957 -5.06094e-07 5.03762 1650.92 2354.04 
403 1.055 1.055 0 0.000211716 0.000211716 5.15847e-08 4.94307 1574.14 2196.33 
443 1.0132 1.0132 0 0.000201334 0.000201334 3.27708e-06 4.82673 1479.06 1987.04 
483 1.0084 1.0084 0 0.00019926 0.00019926 -1.73984e-06 4.80404 1471.93 1965.02 
523 0.965 0.965 0 0.000196077 0.000196077 -6.38824e-06 4.58602 1396.66 1857.75 
563 0.8712 0.8712 0 0.000176008 0.000176008 -2.50719e-06 4.12437 1270.98 1669.55 
603 0.8148 0.8148 0 0.000182836 0.000182836 2.38417e-06 3.88959 1225.94 1603.15 
643 0.0134 0.0134 0 -6.30494e-07 -6.30494e-07 3.56114e-07 0.464017 145.416 218.346 
683 0.0306 0.0306 0 -1.17138e-05 -1.17138e-05 5.92658e-07 0.117138 15.7537 32.1433 
723 0.0302 0.0302 0 -1.24649e-05 -1.24649e-05 -4.56397e-07 0.124649 13.6539 25.3088 
763 0.0324 0.0324 0 -1.28313e-05 -1.28313e-05 -1.68064e-07 0.128313 14.0534 29.1645 
803 0.031 0.031 0 -1.29409e-05 -1.29409e-05 4.88257e-07 0.129409 13.1118 25.529 
843 0.0332 0.0332 0 -1.34844e-05 -1.34844e-05 -3.71217e-07 0.134844 15.261 35.2474 
883 0.0326 0.0326 0 -1.26638e-05 -1.26638e-05 3.81064e-08 0.126638 16.7751 32.4985 
923 0.0262 0.0262 0 -9.33443e-06 -9.33443e-06 9.68415e-08 0.0933443 14.7367 26.0731 
963 0.016 0.016 0 -6.86776e-07 -6.86776e-07 -1.25029e-07 0.65125 212.806 295.822 
1003 0.8308 0.8308 0 0.000190018 0.000190018 -1.13248e-06 3.96592 1232.04 1657.3 
1043 0.9032 0.9032 0 0.000187349 0.000187349 -2.88149e-06 4.32325 1298.04 1717.49 
1083 0.9458 0.9458 0 0.000187003 0.000187003 1.77492e-06 4.51739 1334.97 1782 
1123 0.9762 0.9762 0 0.000187421 0.000187421 -2.61117e-06 4.65271 1350.3 1830.17 
1163 1.0102 1.0102 0 0.000198522 0.000198522 3.85928e-06 4.8165 1485.8 2032.68 
1203 1.048 1.048 0 0.00021109 0.00021109 -3.96141e-07 4.92883 1590.07 2213.24 
1243 1.0584 1.0584 0 0.000215168 0.000215168 5.97778e-07 4.94873 1594.75 2261.34 
4 0.2058 0.2058 0 8.25411e-05 8.25411e-05 6.76845e-08 10.4726 3525.94 5140.7 
44 8.4894 8.4894 0 0.00414913 0.00414913 2.01532e-06 41.4913 8158.63 11561.3 
84 9.1948 9.1948 0 0.0043725 0.0043725 5.68793e-06 43.725 7418.96 10568.5 
124 9.5028 9.5028 0 0.00446512 0.00446512 -1.75239e-05 44.6512 7159.26 10402.2 
164 9.5492 9.5492 0 0.00447289 0.00447289 5.71067e-06 44.7289 7004.58 10058.3 
204 9.482 9.482 0 0.00444468 0.00444468 1.42318e-05 44.4468 7065.11 10141.7 
244 9.2134 9.2134 0 0.00433989 0.00433989 -3.04183e-06 43.3989 7277.86 10424.8 
284 8.6064 8.6064 0 0.0041939 0.0041939 -1.0989e-05 41.939 8041.81 11426.7 
324 0.3974 0.3974 0 0.00020962 0.00020962 1.19725e-06 21.3593 6474.84 9397.03 
364 1.0396 1.0396 0 0.000206279 0.000206279 -2.14011e-06 4.88929 1581.2 2213.26 
404 1.0434 1.0434 0 0.000204321 0.000204321 3.12613e-06 4.9423 1505.64 2063.42 
444 1.0406 1.0406 0 0.000203069 0.000203069 1.31688e-06 4.9188 1515.79 2055.67 
484 0.9984 0.9984 0 0.000196611 0.000196611 2.79777e-06 4.75924 1435.01 1919.97 
524 0.9856 0.9856 0 0.000198783 0.000198783 1.33761e-06 4.68161 1435.25 1894.97 
564 0.9098 0.9098 0 0.000193472 0.000193472 -4.43793e-06 4.38369 1352.24 1743.94 
604 0.8106 0.8106 0 0.000180976 0.000180976 6.55387e-06 3.89755 1239.27 1634.45 
644 0.0118 0.0118 0 -1.12822e-06 -1.12822e-06 -3.21336e-07 0.414807 59.5721 121.184 
684 0.031 0.031 0 -1.15012e-05 -1.15012e-05 -8.42246e-07 0.115012 14.8896 29.3296 
724 0.03 0.03 0 -1.11448e-05 -1.11448e-05 5.03841e-07 0.111448 20.9518 36.9513 
764 0.0328 0.0328 0 -1.287e-05 -1.287e-05 9.51113e-07 0.1287 15.9465 29.7588 
804 0.0388 0.0388 0 -1.56435e-05 -1.56435e-05 -1.6217e-07 0.156435 13.5457 33.4155 
844 0.0378 0.0378 0 -1.48207e-05 -1.48207e-05 -1.57902e-06 0.148207 11.3414 25.1082 
884 0.0322 0.0322 0 -1.26092e-05 -1.26092e-05 -3.82029e-07 0.126092 23.5904 37.613 
924 0.034 0.034 0 -1.29275e-05 -1.29275e-05 3.42247e-08 0.129275 13.6357 27.4025 
964 0.022 0.022 0 9.20316e-07 9.20316e-07 -7.46188e-07 0.917154 323.95 432.676 
1004 0.829 0.829 0 0.000183811 0.000183811 -1.71413e-06 3.99615 1264.66 1670.8 
1044 0.8978 0.8978 0 0.000183284 0.000183284 4.55911e-06 4.31385 1299.8 1729.71 
1084 0.937 0.937 0 0.000182439 0.000182439 -6.7418e-06 4.47093 1315.79 1758.28 
1124 1.0034 1.0034 0 0.000195233 0.000195233 -1.22035e-06 4.77326 1456.64 1966.96 
1164 1.0112 1.0112 0 0.000197246 0.000197246 1.94753e-06 4.82043 1461.61 1991.04 
1204 1.0366 1.0366 0 0.000209904 0.000209904 3.14628e-07 4.86554 1513.55 2055.68 
1244 1.0748 1.0748 0 0.000211118 0.000211118 -2.85814e-06 4.95855 1516.08 2205 
5 0.2206 0.2206 0 9.73785e-05 9.73785e-05 1.69267e-07 11.2338 3935.46 5560.09 
45 8.4354 8.4354 0 0.00413475 0.00413475 -1.62348e-05 41.3475 8013.07 11314.8 
85 9.2112 9.2112 0 0.0043809 0.0043809 1.61483e-05 43.809 7314.11 10545.6 
125 9.4366 9.4366 0 0.00442941 0.00442941 -3.67917e-06 44.2941 7012.87 10086.2 
165 9.524 9.524 0 0.00445066 0.00445066 -1.23204e-05 44.5066 6977.35 10006.7 
205 9.495 9.495 0 0.00443015 0.00443015 2.01214e-06 44.3015 7001.72 10157.1 
245 9.268 9.268 0 0.00437444 0.00437444 2.00553e-06 43.7444 7275.13 10359.5 
285 8.6022 8.6022 0 0.00419125 0.00419125 -5.7345e-06 41.9125 8058.49 11444.9 
325 0.3312 0.3312 0 0.000169244 0.000169244 2.83868e-06 17.8146 5866.93 8065.24 
365 1.0702 1.0702 0 0.00021368 0.00021368 6.68115e-06 4.97266 1598.92 2271.81 
405 1.0754 1.0754 0 0.000216124 0.000216124 -8.7649e-06 5.05836 1557.06 2146.51 
445 1.0264 1.0264 0 0.000208241 0.000208241 2.10627e-06 4.85806 1515.43 2069.05 
485 0.979 0.979 0 0.000193459 0.000193459 -1.01144e-06 4.65967 1404.23 1923.68 
525 0.9412 0.9412 0 0.000187083 0.000187083 -6.45591e-06 4.51655 1383.3 1856.49 
565 0.9014 0.9014 0 0.000184622 0.000184622 4.95576e-06 4.3163 1320.35 1734.17 
605 0.8198 0.8198 0 0.000183446 0.000183446 1.99896e-06 3.93643 1280.29 1666.6 
645 0.0082 0.0082 0 -1.87292e-06 -1.87292e-06 -1.58778e-07 0.322112 31.3697 62.6295 
685 0.026 0.026 0 -9.86476e-06 -9.86476e-06 -5.48958e-07 0.0986476 14.3826 24.7672 
725 0.0354 0.0354 0 -1.36633e-05 -1.36633e-05 -7.61408e-08 0.136633 12.9193 30.9307 
765 0.0316 0.0316 0 -1.25268e-05 -1.25268e-05 -6.68835e-08 0.125268 21.163 36.4353 
805 0.0332 0.0332 0 -1.27441e-05 -1.27441e-05 -1.99186e-07 0.127441 12.0256 29.0225 
845 0.032 0.032 0 -1.32485e-05 -1.32485e-05 -3.49904e-07 0.132485 11.8983 27.6796 
885 0.0314 0.0314 0 -1.26786e-05 -1.26786e-05 -4.03413e-07 0.126786 18.0329 38.7699 
925 0.0314 0.0314 0 -1.14695e-05 -1.14695e-05 3.34881e-07 0.114695 10.4322 24.3679 
965 0.0278 0.0278 0 2.96095e-06 2.96095e-06 -3.38239e-08 1.11813 397.82 597.997 
1005 0.8362 0.8362 0 0.000181737 0.000181737 4.39128e-06 3.96161 1229.65 1588.52 
1045 0.8826 0.8826 0 0.000179363 0.000179363 -3.13364e-06 4.18506 1263.53 1659.68 
1085 0.9476 0.9476 0 0.000190709 0.000190709 -1.7466e-06 4.50595 1370.76 1837.76 
1125 1.0056 1.0056 0 0.000193541 0.000193541 3.48335e-06 4.79786 1451.03 1948.88 
1165 1.0378 1.0378 0 0.00020683 0.00020683 3.99394e-06 4.96291 1562.06 2127.24 
1205 1.0404 1.0404 0 0.000203849 0.000203849 4.2999e-06 4.91871 1514.24 2084.01 
1245 1.0622 1.0622 0 0.000206978 0.000206978 -1.07589e-06 4.92079 1573.44 2261.54 
6 0.263 0.263 0 0.000121771 0.000121771 -1.49097e-06 13.9936 4481.08 6333.98 
46 8.506 8.506 0 0.00416725 0.00416725 1.05372e-05 41.6725 8068.13 11489.8 
86 9.2166 9.2166 0 0.00435855 0.00435855 7.6584e-07 43.5855 7340.95 10552 
126 9.5028 9.5028 0 0.00446498 0.00446498 1.12887e-05 44.6498 7062.76 10180.8 
166 9.5332 9.5332 0 0.00443785 0.00443785 2.29662e-06 44.3785 6998.86 10077.2 
206 9.4812 9.4812 0 0.00446017 0.00446017 1.71948e-05 44.6017 7042.79 10116.5 
246 9.2148 9.2148 0 0.00436835 0.00436835 2.06755e-05 43.6835 7347.97 10468.7 
286 8.5194 8.5194 0 0.00415468 0.00415468 -8.19991e-06 41.5468 8013.79 11401.2 
326 0.3026 0.3026 0 0.000147542 0.000147542 4.22631e-07 15.9695 5095.79 7122.69 
366 1.0796 1.0796 0 0.000211514 0.000211514 7.18412e-07 5.02384 1544.38 2225.34 
406 1.0334 1.0334 0 0.000204287 0.000204287 7.98426e-06 4.82951 1531.27 2114.6 
446 1.0446 1.0446 0 0.000210845 0.000210845 4.7091e-08 4.95454 1565.01 2124.58 
486 0.9966 0.9966 0 0.000198392 0.000198392 -2.7941e-06 4.78326 1468.07 1973.73 
526 0.9452 0.9452 0 0.000185299 0.000185299 2.23853e-06 4.46098 1309.87 1764.08 
566 0.905 0.905 0 0.000188516 0.000188516 2.40804e-06 4.38046 1367.39 1795.93 
606 0.8088 0.8088 0 0.000179342 0.000179342 6.73956e-07 3.90889 1255.02 1624.6 
646 0.003 0.003 0 -5.56233e-07 -5.56233e-07 -2.64265e-07 0.103643 32.5094 46.6252 
686 0.0308 0.0308 0 -1.15972e-05 -1.15972e-05 -6.26138e-07 0.115972 16.5471 31.0168 
726 0.0336 0.0336 0 -1.35812e-05 -1.35812e-05 9.14831e-08 0.135812 13.1141 31.5142 
766 0.035 0.035 0 -1.36142e-05 -1.36142e-05 -1.01166e-06 0.136142 17.7653 34.4385 
806 0.035 0.035 0 -1.35997e-05 -1.35997e-05 -3.04956e-07 0.135997 18.3601 38.0821 
846 0.0364 0.0364 0 -1.45819e-05 -1.45819e-05 9.44209e-07 0.145819 21.2001 42.9981 
886 0.0336 0.0336 0 -1.2884e-05 -1.2884e-05 1.5916e-07 0.12884 15.3519 30.8319 
926 0.033 0.033 0 -1.23686e-05 -1.23686e-05 2.9889e-07 0.123686 19.6251 31.795 
966 0.037 0.037 0 3.89778e-06 3.89778e-06 6.34107e-07 1.51835 413.824 590.174 
1006 0.801 0.801 0 0.000173975 0.000173975 2.95705e-06 3.83083 1157.19 1539.91 
1046 0.911 0.911 0 0.000183574 0.000183574 -8.06693e-06 4.34554 1257.92 1696.16 
1086 0.9676 0.9676 0 0.00019415 0.00019415 -2.41945e-06 4.6144 1400.13 1876.69 
1126 1.0022 1.0022 0 0.000198714 0.000198714 1.75866e-06 4.77266 1444.05 1911.62 
1166 1.0464 1.0464 0 0.000199542 0.000199542 -1.24909e-06 4.91237 1542.6 2093.67 
1206 1.0534 1.0534 0 0.000210715 0.000210715 -3.03734e-06 4.97341 1552.87 2153.36 
1246 1.0792 1.0792 0 0.000218382 0.000218382 1.84274e-06 4.97135 1619.42 2316.84 
7 0.2914 0.2914 0 0.000144469 0.000144469 -1.6794e-06 15.5184 5316.6 7251.39 
47 8.4882 8.4882 0 0.00413561 0.00413561 6.42591e-06 41.3561 8085.84 11441.5 
87 9.2772 9.2772 0 0.00440646 0.00440646 1.34306e-05 44.0646 7383.4 10621.5 
127 9.458 9.458 0 0.0044545 0.0044545 4.0209e-06 44.545 7262.97 10448.1 
167 9.5012 9.5012 0 0.00443709 0.00443709 -4.44364e-06 44.3709 6994.75 10178 
207 9.5008 9.5008 0 0.00443421 0.00443421 4.94794e-06 44.3421 7048.54 10195.1 
247 9.2298 9.2298 0 0.00436587 0.00436587 -1.0931e-05 43.6587 7377.9 10597.2 
287 8.5742 8.5742 0 0.00417865 0.00417865 2.14448e-06 41.7865 8126.02 11580.5 
327 0.2678 0.2678 0 0.000121795 0.000121795 -1.21467e-06 14.2126 4674.86 6433.62 
367 1.0732 1.0732 0 0.00021496 0.00021496 -4.52663e-06 4.91191 1612.8 2302.69 
407 1.0616 1.0616 0 0.000215672 0.000215672 1.70607e-07 4.99492 1527.19 2121.46 
447 0.9974 0.9974 0 0.000197579 0.000197579 3.33648e-06 4.82005 1491.46 2018.41 
487 0.97 0.97 0 0.000197629 0.000197629 2.8598e-06 4.63457 1429.47 1913.68 
527 0.9522 0.9522 0 0.000188461 0.000188461 -9.3409e-07 4.5412 1397.45 1843.54 
567 0.8938 0.8938 0 0.000185484 0.000185484 5.58406e-06 4.23929 1299.62 1696.31 
607 0.819 0.819 0 0.000189266 0.000189266 -3.65581e-06 3.93936 1266.15 1641.34 
647 0.0036 0.0036 0 -1.06342e-06 -1.06342e-06 -1.89026e-07 0.12637 29.1428 45.1628 
687 0.031 0.031 0 -1.18302e-05 -1.18302e-05 -9.79749e-07 0.118302 12.5645 25.9676 
727 0.0312 0.0312 0 -1.19004e-05 -1.19004e-05 8.72746e-08 0.119004 14.2887 28.9987 
767 0.0388 0.0388 0 -1.527e-05 -1.527e-05 2.05003e-07 0.1527 27.3364 45.0617 
807 0.0368 0.0368 0 -1.48662e-05 -1.48662e-05 -7.96036e-07 0.148662 24.2315 45.0868 
847 0.0348 0.0348 0 -1.32261e-05 -1.32261e-05 1.36964e-07 0.132261 15.0539 32.6229 
887 0.032 0.032 0 -1.26542e-05 -1.26542e-05 5.37735e-07 0.126542 20.4045 38.0796 
927 0.0348 0.0348 0 -1.37959e-05 -1.37959e-05 5.89176e-07 0.137959 17.7607 36.368 
967 0.0398 0.0398 0 5.83853e-06 5.83853e-06 -4.82977e-07 1.82154 686.044 920.128 
1007 0.8136 0.8136 0 0.000174815 0.000174815 -5.84229e-07 3.91592 1189.48 1535.54 
1047 0.9 0.9 0 0.000184221 0.000184221 -4.19174e-06 4.31037 1311.85 1754.63 
1087 0.9834 0.9834 0 0.000191766 0.000191766 -2.19419e-06 4.67666 1377.65 1878.3 
1127 0.9864 0.9864 0 0.000193279 0.000193279 2.64567e-06 4.67494 1396.38 1904.21 
1167 1.0386 1.0386 0 0.000202565 0.000202565 -4.56391e-06 4.87238 1506.9 2033.77 
1207 1.0412 1.0412 0 0.000204047 0.000204047 1.42199e-06 4.92194 1484.71 2084.88 
1247 1.066 1.066 0 0.000216419 0.000216419 -3.47627e-06 4.95619 1601.39 2290.15 
8 0.3294 0.3294 0 0.000170732 0.000170732 -1.25881e-06 17.427 5946.72 8228.67 
48 8.5782 8.5782 0 0.00417114 0.00417114 3.65766e-06 41.7114 8134.99 11528.6 
88 9.259 9.259 0 0.00438807 0.00438807 -5.21374e-06 43.8807 7467.44 10668.4 
128 9.4562 9.4562 0 0.00442195 0.00442195 3.7366e-06 44.2195 7044.8 10154.8 
168 9.5724 9.5724 0 0.0044762 0.0044762 3.51664e-06 44.762 6998.73 10062.6 
208 9.484 9.484 0 0.00444565 0.00444565 2.10512e-06 44.4565 7033.82 10145.1 
248 9.217 9.217 0 0.00436071 0.00436071 -5.14359e-06 43.6071 7292.07 10474.1 
288 8.4832 8.4832 0 0.00414825 0.00414825 -1.63355e-05 41.4825 8172.42 11521.9 
328 0.2176 0.2176 0 9.75721e-05 9.75721e-05 7.83306e-07 11.0499 3741.86 5383.11 
368 1.0692 1.0692 0 0.000217637 0.000217637 6.41117e-07 4.95351 1570.84 2225.04 
408 1.0636 1.0636 0 0.000210373 0.000210373 -9.77121e-06 4.97673 1586.21 2196.78 
448 1.019 1.019 0 0.000200581 0.000200581 5.77345e-07 4.8484 1485 2024.44 
488 0.987 0.987 0 0.000195908 0.000195908 1.98116e-06 4.68399 1424.78 1924.78 
528 0.951 0.951 0 0.000191223 0.000191223 2.78736e-06 4.59466 1385.78 1848.13 
568 0.8912 0.8912 0 0.00018 0.00018 -2.90925e-06 4.23963 1262.9 1666.24 
608 0.7972 0.7972 0 0.000184426 0.000184426 9.2091e-06 3.81581 1247.89 1647.81 
648 0.0036 0.0036 0 -9.03697e-07 -9.03697e-07 -2.00757e-07 0.118226 7.36751 16.1469 
688 0.029 0.029 0 -1.08395e-05 -1.08395e-05 1.99496e-07 0.108395 17.1961 37.3695 
728 0.0322 0.0322 0 -1.23533e-05 -1.23533e-05 7.90888e-07 0.123533 15.0672 30.8311 
768 0.0326 0.0326 0 -1.32588e-05 -1.32588e-05 1.58079e-07 0.132588 15.9703 31.2687 
808 0.04 0.04 0 -1.59929e-05 -1.59929e-05 9.00473e-07 0.159929 16.0867 31.2422 
848 0.0356 0.0356 0 -1.46671e-05 -1.46671e-05 6.0103e-07 0.146671 13.908 30.9926 
888 0.0306 0.0306 0 -1.18299e-05 -1.18299e-05 1.95113e-07 0.118299 13.312 29.7623 
928 0.0302 0.0302 0 -1.22354e-05 -1.22354e-05 3.52312e-07 0.122354 11.744 25.4193 
968 0.048 0.048 0 8.70897e-06 8.70897e-06 -5.85316e-08 2.25467 734.892 965.099 
1008 0.8412 0.8412 0 0.000190312 0.000190312 -9.8957e-08 3.99659 1262.01 1648.42 
1048 0.899 0.899 0 0.000180933 0.000180933 3.45501e-06 4.29009 1259.74 1664.98 
1088 0.9674 0.9674 0 0.000193771 0.000193771 3.22341e-06 4.63397 1415.84 1884.59 
1128 1.0154 1.0154 0 0.000203099 0.000203099 -1.94742e-06 4.85191 1467.9 1971.74 
1168 1.0024 1.0024 0 0.000196828 0.000196828 3.42687e-07 4.75383 1483.58 2032.05 
1208 1.041 1.041 0 0.000211288 0.000211288 2.05361e-06 4.92569 1607.36 2202.62 
1248 1.0688 1.0688 0 0.000209543 0.000209543 9.65976e-08 4.93335 1544.85 2243.89 
9 0.3716 0.3716 0 0.000198141 0.000198141 -2.91573e-07 20.0319 6599.82 9381.8 
49 8.5502 8.5502 0 0.00417818 0.00417818 4.77095e-06 41.7818 8143.56 11563.2 
89 9.2596 9.2596 0 0.00437862 0.00437862 -2.16232e-07 43.7862 7416.44 10624.2 
129 9.453 9.453 0 0.00442434 0.00442434 1.13863e-05 44.2434 6982.65 10098.9 
169 9.5526 9.5526 0 0.00448276 0.00448276 3.6864e-06 44.8276 6975.22 10167.7 
209 9.4142 9.4142 0 0.00440233 0.00440233 7.07659e-06 44.0233 6936.26 10071.3 
249 9.1698 9.1698 0 0.00435407 0.00435407 9.34951e-06 43.5407 7354.23 10604.9 
289 8.4304 8.4304 0 0.00413337 0.00413337 1.64563e-05 41.3337 8195.45 11616 
329 0.1942 0.1942 0 7.67995e-05 7.67995e-05 6.98966e-07 9.6543 3181.61 4525.74 
369 1.0592 1.0592 0 0.000210157 0.000210157 -5.54393e-07 5.00131 1550.64 2189.53 
409 1.0444 1.0444 0 0.000207471 0.000207471 2.44865e-06 4.99729 1510.84 2101.89 
449 1.0288 1.0288 0 0.000193899 0.000193899 -2.36826e-06 4.83531 1414.04 1899.65 
489 0.9532 0.9532 0 0.000194865 0.000194865 -2.95759e-07 4.56152 1437.69 1926.33 
529 0.9446 0.9446 0 0.000183086 0.000183086 -1.8816e-06 4.48692 1292.04 1724.45 
569 0.8802 0.8802 0 0.000179495 0.000179495 -4.70569e-06 4.22049 1282.46 1705.11 
609 0.8016 0.8016 0 0.000183676 0.000183676 -6.07616e-06 3.79125 1207.97 1575.64 
649 0.004 0.004 0 -1.04724e-06 -1.04724e-06 5.96721e-08 0.134279 45.6062 45.5923 
689 0.0316 0.0316 0 -1.223e-05 -1.223e-05 -7.53364e-08 0.1223 14.8407 31.6636 
729 0.038 0.038 0 -1.50401e-05 -1.50401e-05 4.29922e-07 0.150401 22.4794 34.985 
769 0.0342 0.0342 0 -1.34152e-05 -1.34152e-05 5.51688e-07 0.134152 13.5658 30.1763 
809 0.0376 0.0376 0 -1.50039e-05 -1.50039e-05 1.24479e-06 0.150039 16.5581 40.5893 
849 0.0378 0.0378 0 -1.44344e-05 -1.44344e-05 -2.34948e-07 0.144344 16.8344 34.8666 
889 0.031 0.031 0 -1.20338e-05 -1.20338e-05 -9.21455e-07 0.120338 14.5061 33.5817 
929 0.0306 0.0306 0 -1.01496e-05 -1.01496e-05 -6.94676e-07 0.101496 14.1535 24.682 
969 0.0628 0.0628 0 1.45741e-05 1.45741e-05 -5.37308e-07 3.01858 991.614 1338.36 
1009 0.816 0.816 0 0.000182739 0.000182739 -2.79305e-06 3.87371 1255.93 1651.92 
1049 0.8928 0.8928 0 0.000170551 0.000170551 1.21451e-06 4.20454 1225.5 1633.83 
1089 0.9858 0.9858 0 0.000192094 0.000192094 -2.38013e-06 4.73893 1412 1903.64 
1129 0.9914 0.9914 0 0.000195357 0.000195357 2.65951e-06 4.73515 1499.75 1976.5 
1169 1.0344 1.0344 0 0.000201496 0.000201496 7.18616e-06 4.85243 1473.99 2007.03 
1209 1.0612 1.0612 0 0.000213893 0.000213893 -4.63747e-06 5.01053 1594.57 2189.25 
1249 1.06 1.06 0 0.000213844 0.000213844 2.65206e-06 4.92499 1571.22 2242.99 
10 0.418 0.418 0 0.000224612 0.000224612 -3.46048e-07 22.5602 7260.01 10099.9 
50 8.5868 8.5868 0 0.00416852 0.00416852 -7.10045e-06 41.6852 7957.85 11334.9 
90 9.2516 9.2516 0 0.00437006 0.00437006 -8.54112e-07 43.7006 7219.24 10443.9 
130 9.4462 9.4462 0 0.0044185 0.0044185 -1.29377e-06 44.185 6993.51 10097.1 
170 9.5762 9.5762 0 0.00447484 0.00447484 -8.68708e-06 44.7484 7049.17 10138.6 
210 9.4978 9.4978 0 0.00446358 0.00446358 -9.6675e-06 44.6358 7061.94 10182.7 
250 9.2232 9.2232 0 0.00436786 0.00436786 -4.94372e-06 43.6786 7291.82 10476.6 
290 8.3852 8.3852 0 0.00410185 0.00410185 1.55025e-05 41.0185 8103.16 11411.6 
330 0.1628 0.1628 0 5.99948e-05 5.99948e-05 -1.26963e-06 8.04339 2597.39 3713.45 
370 1.0678 1.0678 0 0.0002192 0.0002192 6.47962e-06 5.00362 1571.2 2250.33 
410 1.0578 1.0578 0 0.000216385 0.000216385 3.91001e-06 5.00866 1571.01 2200.43 
450 1.0406 1.0406 0 0.000207058 0.000207058 6.83625e-07 4.9067 1529.26 2062.96 
490 0.9998 0.9998 0 0.000196567 0.000196567 -6.92047e-06 4.78105 1460.71 1978.51 
530 0.9104 0.9104 0 0.000176349 0.000176349 3.385e-06 4.34474 1293.31 1749.51 
570 0.8964 0.8964 0 0.00019388 0.00019388 5.49455e-06 4.26506 1377.88 1786.38 
610 0.7806 0.7806 0 0.0001808 0.0001808 2.91078e-08 3.76023 1232.31 1580.99 
650 0.002 0.002 0 -7.31481e-07 -7.31481e-07 3.06408e-07 0.0748654 21.6744 40.3315 
690 0.0302 0.0302 0 -1.15099e-05 -1.15099e-05 -1.21685e-06 0.115099 18.5482 29.3136 
730 0.0348 0.0348 0 -1.35866e-05 -1.35866e-05 1.16311e-06 0.135866 20.6008 39.4444 
770 0.0316 0.0316 0 -1.22715e-05 -1.22715e-05 7.79923e-08 0.122715 13.8286 29.3174 
810 0.0352 0.0352 0 -1.34245e-05 -1.34245e-05 -2.62292e-07 0.134245 17.2597 32.2998 
850 0.0324 0.0324 0 -1.26016e-05 -1.26016e-05 -7.05396e-08 0.126016 13.6783 27.8306 
890 0.0302 0.0302 0 -1.16209e-05 -1.16209e-05 1.4724e-08 0.116209 12.9759 32.6059 
930 0.036 0.036 0 -1.39201e-05 -1.39201e-05 2.58765e-07 0.139201 22.5997 37.7632 
970 0.1634 0.1634 0 4.34434e-05 4.34434e-05 1.4843e-06 3.21365 1149.06 1458.41 
1010 0.8276 0.8276 0 0.000177694 0.000177694 -9.41752e-06 3.98516 1225.22 1591.47 
1050 0.9144 0.9144 0 0.000186118 0.000186118 -4.29223e-06 4.40758 1313.22 1722.78 
1090 0.9466 0.9466 0 0.000186111 0.000186111 -1.01334e-06 4.50249 1369.04 1848.23 
1130 0.9824 0.9824 0 0.000188404 0.000188404 -5.02289e-06 4.64805 1413.96 1894.61 
1170 1.0524 1.0524 0 0.000215106 0.000215106 5.33708e-06 5.03482 1600.73 2162.06 
1210 1.0372 1.0372 0 0.000209864 0.000209864 -8.2478e-07 4.90363 1559.2 2135 
1250 1.0704 1.0704 0 0.000218353 0.000218353 1.38879e-06 4.95111 1640.91 2342.82 
11 0.4586 0.4586 0 0.000254781 0.000254781 -2.67895e-06 25.2844 8373.18 11497.3 
51 8.6134 8.6134 0 0.00417938 0.00417938 1.34864e-05 41.7938 7822.65 11126.6 
91 9.3176 9.3176 0 0.00439127 0.00439127 1.71004e-05 43.9127 7309.75 10528.8 
131 9.4738 9.4738 0 0.00444747 0.00444747 -6.14299e-06 44.4747 7080.69 10202.3 
171 9.5982 9.5982 0 0.00449187 0.00449187 3.66462e-06 44.9187 7038.3 10089.2 
211 9.5052 9.5052 0 0.00446934 0.00446934 2.32e-06 44.6934 7073.84 10166.2 
251 9.0938 9.0938 0 0.0043049 0.0043049 -1.87702e-07 43.049 7235.57 10447.8 
291 8.3424 8.3424 0 0.00410002 0.00410002 1.02847e-05 41.0002 8161.05 11515.2 
331 0.1412 0.1412 0 4.21008e-05 4.21008e-05 2.59255e-06 6.79029 2183.88 3128.68 
371 1.057 1.057 0 0.00021087 0.00021087 -5.58071e-06 4.93731 1591.03 2208.19 
411 1.0264 1.0264 0 0.000199822 0.000199822 8.19929e-07 4.86775 1508.61 2027.31 
451 1.0162 1.0162 0 0.000195629 0.000195629 6.32837e-07 4.76711 1482.72 1997.14 
491 0.9834 0.9834 0 0.000193839 0.000193839 1.17659e-06 4.63823 1377.93 1886.74 
531 0.9698 0.9698 0 0.00019323 0.00019323 -4.93747e-06 4.59207 1373.28 1840.78 
571 0.8854 0.8854 0 0.000179703 0.000179703 -5.32036e-06 4.20922 1260.58 1649.32 
611 0.7836 0.7836 0 0.000181279 0.000181279 -8.53867e-07 3.73838 1172.69 1528.29 
651 0.0046 0.0046 0 -1.69829e-06 -1.69829e-06 1.76185e-07 0.17442 25.5626 39.597 
691 0.0356 0.0356 0 -1.30481e-05 -1.30481e-05 2.23649e-07 0.130481 19.8763 32.9952 
731 0.0352 0.0352 0 -1.37288e-05 -1.37288e-05 7.31983e-07 0.137288 13.9948 33.816 
771 0.0368 0.0368 0 -1.52499e-05 -1.52499e-05 9.01837e-07 0.152499 21.5629 41.549 
811 0.0392 0.0392 0 -1.50115e-05 -1.50115e-05 1.55726e-06 0.150115 17.9667 35.0928 
851 0.038 0.038 0 -1.54761e-05 -1.54761e-05 -3.04602e-07 0.154761 19.098 38.5499 
891 0.0354 0.0354 0 -1.35169e-05 -1.35169e-05 1.11051e-07 0.135169 20.8926 38.3765 
931 0.0312 0.0312 0 -1.22384e-05 -1.22384e-05 -8.74197e-07 0.122384 20.3346 38.1321 
971 0.1692 0.1692 0 4.80802e-05 4.80802e-05 4.18654e-07 3.38422 1273.1 1584.86 
1011 0.8302 0.8302 0 0.000183613 0.000183613 3.51107e-06 4.01282 1261.6 1651.67 
1051 0.9074 0.9074 0 0.000185581 0.000185581 -2.19349e-06 4.30004 1308.31 1744.63 
1091 0.9696 0.9696 0 0.000191814 0.000191814 7.13073e-07 4.68529 1437.41 1890.75 
1131 1.0024 1.0024 0 0.000196138 0.000196138 -1.60226e-06 4.81427 1442.77 1931.9 
1171 1.041 1.041 0 0.000203365 0.000203365 4.25163e-06 4.90093 1498.24 2071.09 
1211 1.045 1.045 0 0.000202673 0.000202673 -2.42132e-06 4.93023 1521.72 2125.41 
1251 1.056 1.056 0 0.000216967 0.000216967 2.89108e-06 4.91076 1595.8 2280.86 
12 0.4912 0.4912 0 0.00028304 0.00028304 -1.12555e-06 27.9525 8990.19 12221.2 
52 8.6948 8.6948 0 0.00420571 0.00420571 5.36689e-06 42.0571 7793.2 11132.4 
92 9.2266 9.2266 0 0.00436171 0.00436171 7.17613e-06 43.6171 7370.96 10540.2 
132 9.5278 9.5278 0 0.00446174 0.00446174 4.49175e-07 44.6174 7054.85 10237.5 
172 9.5464 9.5464 0 0.004472 0.004472 -2.42454e-06 44.72 6997.91 10156.2 
212 9.5442 9.5442 0 0.00447158 0.00447158 -1.75595e-05 44.7158 7057.85 10286.2 
252 9.1686 9.1686 0 0.00434322 0.00434322 -4.15146e-06 43.4322 7266.05 10525.3 
292 8.3304 8.3304 0 0.00409668 0.00409668 -4.3914e-06 40.9668 8261.09 11708.7 
332 0.1196 0.1196 0 3.32374e-05 3.32374e-05 1.1547e-06 5.65335 1822.91 2668.82 
372 1.0546 1.0546 0 0.00021736 0.00021736 2.36617e-07 4.89773 1561.19 2179.18 
412 1.0516 1.0516 0 0.000211028 0.000211028 2.3651e-06 4.98735 1560.85 2161.94 
452 1.0104 1.0104 0 0.00019883 0.00019883 4.06719e-06 4.83871 1419.57 1949.02 
492 0.9508 0.9508 0 0.000188686 0.000188686 -1.71448e-06 4.5653 1335.26 1785.11 
532 0.9446 0.9446 0 0.000183729 0.000183729 -5.68679e-07 4.46214 1331.46 1783.98 
572 0.8806 0.8806 0 0.000187376 0.000187376 5.54177e-06 4.22886 1322.56 1744.34 
612 0.7984 0.7984 0 0.000188625 0.000188625 2.00216e-06 3.77727 1243.23 1598.36 
652 0.008 0.008 0 -2.55795e-06 -2.55795e-06 2.17579e-07 0.102318 12.3668 25.5569 