ITEM: TIMESTEP
25000
ITEM: NUMBER OF SURFS
1248
ITEM: BOX BOUNDS oo rr pp
0 0.3
0 0.3
-0.5 0.5
ITEM: SURFS id f_4[1] f_4[2] f_4[3] f_4[4] f_4[5] f_4[6] f_4[7] f_4[8] f_4[9] 
1 0.337 0.337 0 0.000622988 0.000622988 -3.03696e-05 27.5484 4931.99 7036.19 
41 8.2686 8.2686 0 0.0356869 0.0356869 -3.61596e-05 356.869 32525.5 44851 
81 10.0182 10.0182 0 0.0417414 0.0417414 3.31307e-05 417.414 28084.2 39078.3 
121 10.4268 10.4268 0 0.0430645 0.0430645 0.000115698 430.645 26013.4 35965.1 
161 10.6524 10.6524 0 0.0441205 0.0441205 -1.71356e-05 441.205 25480.2 35431.5 
201 10.6316 10.6316 0 0.043948 0.043948 -0.000115897 439.48 26896.1 37054.5 
241 10.3306 10.3306 0 0.042958 0.042958 -5.87148e-05 429.58 27214.5 37525 
281 9.5418 9.5418 0 0.0402375 0.0402375 8.76356e-06 402.375 29261.9 40711.4 
321 2.16 2.16 0 0.00970995 0.00970995 4.86489e-05 196.909 28091.6 38428 
361 0.6802 0.6802 0 0.00103244 0.00103244 6.02881e-06 29.0008 5480.23 7155.7 
401 0.785 0.785 0 0.000819781 0.000819781 3.56914e-05 34.8877 5466.87 7270.01 
441 0.8472 0.8472 0 0.000751662 0.000751662 3.90679e-05 37.5921 5600.41 7466.16 
481 0.876 0.876 0 0.000745682 0.000745682 1.45144e-05 39.3232 5326.67 7094.61 
521 0.9684 0.9684 0 0.000741124 0.000741124 1.63762e-05 42.1664 5142.34 7207.58 
561 0.904 0.904 0 0.000695381 0.000695381 -4.49496e-06 39.9253 4672.2 6436.64 
601 0.85 0.85 0 0.00074814 0.00074814 -1.13239e-05 37.1961 4337.12 5865.14 
641 0.0762 0.0762 0 -0.00011708 -0.00011708 -3.77621e-06 5.76447 775.766 1170.64 
681 0.1042 0.1042 0 -0.000412181 -0.000412181 1.78992e-05 4.12181 374.269 574.649 
721 0.1666 0.1666 0 -0.00070305 -0.00070305 -6.78711e-06 7.0305 601.922 886.808 
761 0.21 0.21 0 -0.000905893 -0.000905893 -1.18543e-06 9.05893 711.392 963.639 
801 0.2206 0.2206 0 -0.000936025 -0.000936025 4.05954e-06 9.36025 709.009 1081.47 
841 0.1878 0.1878 0 -0.000794076 -0.000794076 1.3066e-05 7.94076 607.025 877.293 
881 0.1686 0.1686 0 -0.000714382 -0.000714382 -1.07699e-05 7.14382 600.994 831.948 
921 0.0898 0.0898 0 -0.000355063 -0.000355063 7.17979e-06 3.55063 318.127 525.843 
961 0.182 0.182 0 5.04541e-05 5.04541e-05 -2.08374e-05 14.917 2766.76 3578.62 
1001 0.8714 0.8714 0 0.000718743 0.000718743 3.83693e-05 37.8688 4846.81 6473.31 
1041 0.9258 0.9258 0 0.000661798 0.000661798 -1.68913e-05 40.9875 5070.91 7016.06 
1081 0.931 0.931 0 0.000653147 0.000653147 4.76666e-06 40.7409 4896.27 6802.8 
1121 0.871 0.871 0 0.000660849 0.000660849 -2.7065e-06 38.1138 5090.36 6769.1 
1161 0.855 0.855 0 0.000811813 0.000811813 -4.63507e-05 37.7523 5306.15 7260.14 
1201 0.7988 0.7988 0 0.000923794 0.000923794 -1.77278e-05 35.3559 5910.89 7767.37 
1241 0.6678 0.6678 0 0.00114441 0.00114441 4.7505e-05 28.0134 5375.05 7139.2 
2 0.3702 0.3702 0 0.000778783 0.000778783 2.67577e-06 30.9856 5854.94 8109.42 
42 8.3784 8.3784 0 0.0358775 0.0358775 7.53248e-06 358.775 33028.3 45170.9 
82 10.0616 10.0616 0 0.042201 0.042201 3.85094e-05 422.01 28518.1 39120.5 
122 10.5422 10.5422 0 0.0436227 0.0436227 -7.90267e-05 436.227 26181.8 36714.9 
162 10.6894 10.6894 0 0.0440456 0.0440456 -6.09578e-05 440.456 25342.4 35511.8 
202 10.7176 10.7176 0 0.0442778 0.0442778 1.24052e-05 442.778 26620.1 36762.6 
242 10.3022 10.3022 0 0.0427877 0.0427877 3.26908e-05 427.877 27115.2 37719.6 
282 9.4916 9.4916 0 0.0398411 0.0398411 -0.000156984 398.411 29046.3 40402.1 
322 2.151 2.151 0 0.00962021 0.00962021 -3.35863e-05 195.762 28692 39097.8 
362 0.6982 0.6982 0 0.00102729 0.00102729 -3.08222e-05 30.1317 5047.26 6915.01 
402 0.8214 0.8214 0 0.000837207 0.000837207 3.06349e-05 36.5058 5869.53 7606.16 
442 0.8638 0.8638 0 0.000753618 0.000753618 3.97974e-05 37.9681 5217.71 7339.3 
482 0.9138 0.9138 0 0.000733807 0.000733807 3.86435e-05 40.3468 5306.78 7191.7 
522 0.9222 0.9222 0 0.000666211 0.000666211 3.24879e-05 40.242 5295.44 7317.89 
562 0.8902 0.8902 0 0.000647652 0.000647652 8.78315e-06 38.6658 4508.02 6235.71 
602 0.8342 0.8342 0 0.000739073 0.000739073 4.14069e-05 36.9667 4556.67 6131.44 
642 0.0716 0.0716 0 -0.000119361 -0.000119361 4.42263e-06 5.50321 763.503 1094.69 
682 0.1076 0.1076 0 -0.000430242 -0.000430242 9.10331e-06 4.30242 397.349 591.202 
722 0.1704 0.1704 0 -0.000708819 -0.000708819 -4.66156e-07 7.08819 501.303 769.03 
762 0.2 0.2 0 -0.000839684 -0.000839684 1.31138e-05 8.39684 635.686 904.345 
802 0.2246 0.2246 0 -0.000976858 -0.000976858 -2.13384e-05 9.76858 698.069 1074.59 
842 0.1966 0.1966 0 -0.000828923 -0.000828923 -1.57194e-05 8.28923 761.278 1075.23 
882 0.159 0.159 0 -0.000672867 -0.000672867 -1.91253e-05 6.72867 433.833 652.609 
922 0.0948 0.0948 0 -0.00036803 -0.00036803 1.26286e-05 3.6803 338.9 489.08 
962 0.1892 0.1892 0 7.86956e-05 7.86956e-05 9.33032e-06 16.2797 2720.46 3640.33 
1002 0.8864 0.8864 0 0.000709496 0.000709496 -1.35992e-05 39.0277 4942.31 6586.69 
1042 0.9132 0.9132 0 0.000675946 0.000675946 -3.78959e-06 39.6619 4618.89 6377.85 
1082 0.9286 0.9286 0 0.000693163 0.000693163 4.59448e-05 41.0296 5027.17 7018.57 
1122 0.896 0.896 0 0.000714348 0.000714348 7.15887e-06 39.7902 5432.23 7322.92 
1162 0.838 0.838 0 0.000781861 0.000781861 1.77245e-05 37.3138 5279.75 7216.95 
1202 0.777 0.777 0 0.000898117 0.000898117 -7.49712e-06 34.3995 5463.85 7373.17 
1242 0.6892 0.6892 0 0.00113185 0.00113185 6.10683e-07 28.6756 5256.68 7064.97 
3 0.3896 0.3896 0 0.000919616 0.000919616 -1.52937e-05 32.439 5982.67 8582.95 
43 8.5596 8.5596 0 0.0366775 0.0366775 7.28687e-05 366.775 31893.3 44898.1 
83 10.117 10.117 0 0.0421952 0.0421952 5.15724e-05 421.952 27767 38795.1 
123 10.4084 10.4084 0 0.0430912 0.0430912 1.43602e-05 430.912 26370.9 36474.1 
163 10.65 10.65 0 0.0441306 0.0441306 2.54307e-05 441.306 26129.2 36467.7 
203 10.5568 10.5568 0 0.0436745 0.0436745 8.01937e-05 436.745 26389.6 36803.3 
243 10.3182 10.3182 0 0.0428603 0.0428603 -0.000125471 428.603 27354.1 37843.5 
283 9.5938 9.5938 0 0.0405134 0.0405134 1.79006e-05 405.134 30014.2 41872.6 
323 1.9764 1.9764 0 0.00872719 0.00872719 4.11028e-05 178.873 26605.6 36036.3 
363 0.7198 0.7198 0 0.00104959 0.00104959 -2.51623e-05 31.2708 6072.63 7760.18 
403 0.7982 0.7982 0 0.000941248 0.000941248 -3.6113e-05 34.8098 5619.21 7398.48 
443 0.8646 0.8646 0 0.000748353 0.000748353 -1.77865e-05 38.4755 4949.38 6663.61 
483 0.9214 0.9214 0 0.000746089 0.000746089 -8.30174e-06 40.7002 5511.06 7507.98 
523 0.9382 0.9382 0 0.000690447 0.000690447 -2.3486e-06 40.8344 4832.87 6401.24 
563 0.9024 0.9024 0 0.000672119 0.000672119 -3.64128e-05 39.4337 4821.74 6538.55 
603 0.826 0.826 0 0.000705 0.000705 2.90358e-05 36.5318 4630.97 6189.93 
643 0.0574 0.0574 0 -9.63404e-05 -9.63404e-05 -1.05816e-06 4.31467 657.728 920.481 
683 0.1108 0.1108 0 -0.00044614 -0.00044614 7.8838e-06 4.4614 417.438 619.391 
723 0.1724 0.1724 0 -0.000753388 -0.000753388 -1.47579e-05 7.53388 615.764 886.63 
763 0.2016 0.2016 0 -0.000842165 -0.000842165 1.26933e-05 8.42165 732.161 1099.76 
803 0.1974 0.1974 0 -0.00084275 -0.00084275 6.09814e-06 8.4275 661.999 1017.78 
843 0.1908 0.1908 0 -0.0008226 -0.0008226 6.68578e-06 8.226 749.374 1062.24 
883 0.146 0.146 0 -0.000608608 -0.000608608 -9.13803e-06 6.08608 456.39 702.235 
923 0.089 0.089 0 -0.00034316 -0.00034316 1.90717e-05 3.4316 225.352 380.866 
963 0.2152 0.2152 0 0.000118087 0.000118087 1.37227e-05 18.7095 3018.59 4171.84 
1003 0.868 0.868 0 0.000651421 0.000651421 -1.23608e-05 38.354 4317.4 6223.51 
1043 0.9284 0.9284 0 0.000601908 0.000601908 -3.35318e-05 40.6991 4995.39 6801.38 
1083 0.9278 0.9278 0 0.000648739 0.000648739 6.69253e-06 40.7416 5010 6886.83 
1123 0.8816 0.8816 0 0.000686119 0.000686119 -3.42547e-05 38.7166 5150.11 6925.65 
1163 0.8728 0.8728 0 0.000837728 0.000837728 2.55964e-05 38.8105 5935.94 7654.69 
1203 0.775 0.775 0 0.000906689 0.000906689 4.37469e-06 34.5238 5508.78 7443.06 
1243 0.6778 0.6778 0 0.00115219 0.00115219 -3.96068e-05 28.4864 5099.35 6958.45 
4 0.4556 0.4556 0 0.00116892 0.00116892 -7.37261e-06 38.3841 7851.1 10668.4 
44 8.5786 8.5786 0 0.0366483 0.0366483 -7.93607e-05 366.483 32513.1 44931.5 
84 10.1178 10.1178 0 0.0419699 0.0419699 -3.43809e-05 419.699 27981.5 38984.2 
124 10.5486 10.5486 0 0.043597 0.043597 -0.000114383 435.97 26825.2 37124.4 
164 10.6636 10.6636 0 0.044075 0.044075 -9.5188e-05 440.75 26190.3 36195.5 
204 10.621 10.621 0 0.0439871 0.0439871 1.22205e-05 439.871 26758.3 36654.5 
244 10.2628 10.2628 0 0.0425941 0.0425941 -0.000200454 425.941 26821.3 37249.4 
284 9.5026 9.5026 0 0.040053 0.040053 -3.57881e-05 400.53 30496.8 42234.7 
324 1.8186 1.8186 0 0.00794922 0.00794922 -0.000110455 164.413 25588.8 35068.9 
364 0.6762 0.6762 0 0.00100221 0.00100221 2.55424e-05 29.5532 5179.43 6757.08 
404 0.8024 0.8024 0 0.000872323 0.000872323 -1.21011e-05 35.305 5405.28 7115.69 
444 0.8896 0.8896 0 0.000774369 0.000774369 -1.19293e-05 39.4771 5276.77 7065.94 
484 0.8884 0.8884 0 0.000686375 0.000686375 8.10482e-05 39.0253 5406.22 7406.47 
524 0.9172 0.9172 0 0.000687289 0.000687289 2.23936e-05 40.2228 4877.6 6789.81 
564 0.9322 0.9322 0 0.000687351 0.000687351 -1.02869e-05 41.1449 4719.88 6544.46 
604 0.8296 0.8296 0 0.000718314 0.000718314 1.11329e-05 36.6794 4592.86 6168.36 
644 0.0532 0.0532 0 -9.80538e-05 -9.80538e-05 -1.57814e-06 3.98281 429.685 661.706 
684 0.1078 0.1078 0 -0.000423257 -0.000423257 3.84835e-06 4.23257 307.179 495.629 
724 0.1696 0.1696 0 -0.000720314 -0.000720314 6.37979e-06 7.20314 568.345 864.206 
764 0.2092 0.2092 0 -0.00088213 -0.00088213 4.98089e-06 8.8213 672.498 919.152 
804 0.218 0.218 0 -0.000934865 -0.000934865 1.68154e-05 9.34865 780.652 1152.86 
844 0.1914 0.1914 0 -0.00081318 -0.00081318 2.27767e-05 8.1318 576.655 754.54 
884 0.16 0.16 0 -0.00067027 -0.00067027 -2.0146e-06 6.7027 567.838 893.977 
924 0.0868 0.0868 0 -0.000343944 -0.000343944 -1.25738e-05 3.43944 224.437 370.816 
964 0.2308 0.2308 0 0.000148284 0.000148284 -1.46194e-05 19.9591 2973.84 4055.76 
1004 0.8788 0.8788 0 0.000673018 0.000673018 2.22954e-05 38.2114 4477.47 6145.74 
1044 0.9402 0.9402 0 0.000700171 0.000700171 -1.67608e-05 41.1636 4861.55 6467.62 
1084 0.9122 0.9122 0 0.000653885 0.000653885 9.65507e-06 39.3428 4814.02 6655.68 
1124 0.926 0.926 0 0.000758899 0.000758899 3.63577e-05 40.8576 5376.41 7336.87 
1164 0.8334 0.8334 0 0.000808113 0.000808113 -3.63152e-05 37.3176 5771.26 7633.22 
1204 0.7924 0.7924 0 0.000915174 0.000915174 5.29237e-05 34.6845 5551.48 7284.44 
1244 0.6802 0.6802 0 0.00118221 0.00118221 5.51799e-06 28.2736 5026.22 6946.15 
5 0.492 0.492 0 0.00133298 0.00133298 2.34715e-05 41.6074 7880.81 10451 
45 8.6382 8.6382 0 0.0368559 0.0368559 -5.6218e-05 368.559 32315.9 44553.8 
85 10.0986 10.0986 0 0.0422304 0.0422304 5.46884e-05 422.304 28313.8 39383.5 
125 10.5432 10.5432 0 0.0436808 0.0436808 -5.49031e-05 436.808 26896 36924.9 
165 10.5864 10.5864 0 0.0435968 0.0435968 5.2435e-05 435.968 25577.9 36002.2 
205 10.6508 10.6508 0 0.0439764 0.0439764 -9.96861e-06 439.764 26673.4 37379.4 
245 10.3638 10.3638 0 0.0431372 0.0431372 4.6027e-05 431.372 27827.3 38421.5 
285 9.3358 9.3358 0 0.0394511 0.0394511 -3.97153e-05 394.511 29437.3 41295.5 
325 1.7378 1.7378 0 0.00756067 0.00756067 7.19083e-05 157.969 25907.4 35171 
365 0.7394 0.7394 0 0.00104549 0.00104549 2.87643e-06 32.2096 5625.79 7337.78 
405 0.7956 0.7956 0 0.000890931 0.000890931 8.92746e-06 35.5381 5396.58 7116.45 
445 0.8694 0.8694 0 0.000816613 0.000816613 1.27994e-05 38.8603 5565.5 7436.62 
485 0.9362 0.9362 0 0.000743688 0.000743688 4.80352e-06 41.2964 5237.29 7095.46 
525 0.8994 0.8994 0 0.000656304 0.000656304 -4.57396e-06 39.389 4640.66 6241.09 
565 0.8942 0.8942 0 0.000638199 0.000638199 7.85179e-06 39.4708 4714.43 6472.06 
605 0.8036 0.8036 0 0.000695314 0.000695314 -3.55993e-05 35.0893 4636.25 6141.26 
645 0.0452 0.0452 0 -9.12353e-05 -9.12353e-05 -5.44206e-06 3.18558 423.217 595.743 
685 0.1178 0.1178 0 -0.000465858 -0.000465858 -8.1396e-06 4.65858 404.279 541.616 
725 0.178 0.178 0 -0.000749338 -0.000749338 -9.14526e-07 7.49338 529.449 800.688 
765 0.198 0.198 0 -0.000837366 -0.000837366 4.06211e-06 8.37366 727.158 1058.16 
805 0.212 0.212 0 -0.000898467 -0.000898467 -8.36393e-06 8.98467 667.123 1034.67 
845 0.197 0.197 0 -0.000820049 -0.000820049 1.41859e-05 8.20049 599.288 880.303 
885 0.149 0.149 0 -0.000642654 -0.000642654 1.90307e-06 6.42654 405.77 614.02 
925 0.0788 0.0788 0 -0.000297497 -0.000297497 1.54063e-06 2.97497 162.776 319.999 
965 0.2538 0.2538 0 0.00023428 0.00023428 -3.21916e-05 22.7865 4009.86 5184.76 
1005 0.8726 0.8726 0 0.000650931 0.000650931 1.88521e-05 38.0386 4233.84 5947.96 
1045 0.9058 0.9058 0 0.0006797 0.0006797 4.19283e-06 39.9953 4754.91 6664.31 
1085 0.9342 0.9342 0 0.000691365 0.000691365 2.53952e-05 40.761 5379.58 7264.81 
1125 0.8832 0.8832 0 0.000732062 0.000732062 -1.98514e-05 39.1749 5501.3 7314.74 
1165 0.8472 0.8472 0 0.000792677 0.000792677 -8.82335e-06 37.4401 5509.93 7403.58 
1205 0.77 0.77 0 0.000890571 0.000890571 -2.01676e-05 33.949 5381.67 7126.56 
1245 0.6728 0.6728 0 0.00120241 0.00120241 6.15151e-07 28.0305 5078.39 6856.14 
6 0.5364 0.5364 0 0.00153685 0.00153685 5.12895e-06 46.139 8521.58 11856.2 
46 8.7592 8.7592 0 0.0373461 0.0373461 -0.000149381 373.461 32320.7 44844 
86 10.0572 10.0572 0 0.0419665 0.0419665 -5.13718e-05 419.665 28209.4 38971 
126 10.5154 10.5154 0 0.0435316 0.0435316 -3.11863e-05 435.316 26602.3 36840.3 
166 10.675 10.675 0 0.0442159 0.0442159 -0.000104333 442.159 26215.2 36213.5 
206 10.6268 10.6268 0 0.0440703 0.0440703 -4.75521e-05 440.703 25711.6 35813.4 
246 10.2798 10.2798 0 0.0426578 0.0426578 4.69792e-05 426.578 27485.3 37655.4 
286 9.4896 9.4896 0 0.0399171 0.0399171 -2.66283e-05 399.171 30309.3 42241.1 
326 1.645 1.645 0 0.00697068 0.00697068 -6.94488e-05 148.091 23134.1 31681.6 
366 0.7194 0.7194 0 0.000971341 0.000971341 -3.13254e-06 30.7777 5126.81 6728.92 
406 0.7984 0.7984 0 0.000809494 0.000809494 -3.47731e-05 35.5819 5473.67 7154.22 
446 0.8716 0.8716 0 0.000737493 0.000737493 1.8946e-05 38.8131 5355.56 7048.7 
486 0.8828 0.8828 0 0.000685215 0.000685215 -1.9031e-05 38.9712 5212.29 6848.52 
526 0.9158 0.9158 0 0.000711125 0.000711125 -9.52567e-06 40.2949 5047.08 6723.03 
566 0.901 0.901 0 0.000628614 0.000628614 -2.14132e-06 39.0898 4774.76 6620.62 
606 0.8118 0.8118 0 0.000747178 0.000747178 1.28933e-05 35.2504 4434.27 6108.02 
646 0.0438 0.0438 0 -0.000104054 -0.000104054 -6.38579e-06 3.3109 424.479 579.719 
686 0.1104 0.1104 0 -0.00045353 -0.00045353 -1.63579e-06 4.5353 303.797 498.763 
726 0.175 0.175 0 -0.000737938 -0.000737938 1.25335e-05 7.37938 510.756 789.663 
766 0.2124 0.2124 0 -0.000887409 -0.000887409 8.53832e-06 8.87409 888.326 1160.46 
806 0.214 0.214 0 -0.000906803 -0.000906803 -1.10016e-05 9.06803 652.979 985.326 
846 0.1944 0.1944 0 -0.00081413 -0.00081413 1.36559e-05 8.1413 743.473 1049.58 
886 0.1584 0.1584 0 -0.000671899 -0.000671899 -2.39697e-05 6.71899 643.006 940.534 
926 0.0818 0.0818 0 -0.000311551 -0.000311551 -1.12949e-05 3.11551 192.108 327.73 
966 0.2724 0.2724 0 0.000323581 0.000323581 -1.67153e-06 23.8204 4229.17 5354.34 
1006 0.8872 0.8872 0 0.000684777 0.000684777 -2.24931e-05 38.7332 4654.38 6406.3 
1046 0.9154 0.9154 0 0.00068506 0.00068506 -1.15726e-05 40.1215 4961.26 6886.17 
1086 0.9126 0.9126 0 0.000699189 0.000699189 -1.46225e-05 40.5612 5156.45 7038.01 
1126 0.8872 0.8872 0 0.000730908 0.000730908 -1.104e-05 38.8367 5134.68 7005.69 
1166 0.842 0.842 0 0.000784237 0.000784237 -8.43338e-06 37.4383 5176.91 7195.56 
1206 0.7584 0.7584 0 0.000896502 0.000896502 7.2835e-06 33.735 5558 7378.54 
1246 0.6748 0.6748 0 0.00123556 0.00123556 6.67575e-06 27.3781 4969.97 6692.16 
7 0.5784 0.5784 0 0.00179912 0.00179912 -1.1181e-05 50.0309 9787.04 13166.3 
47 8.8434 8.8434 0 0.0376985 0.0376985 3.27433e-05 376.985 31183.7 43474.7 
87 10.0834 10.0834 0 0.0422043 0.0422043 -2.52865e-05 422.043 28463.5 39235 
127 10.5036 10.5036 0 0.0435965 0.0435965 -5.59598e-05 435.965 26055.8 36500.1 
167 10.689 10.689 0 0.044224 0.044224 2.52923e-05 442.24 26563.7 36489.9 
207 10.6074 10.6074 0 0.0439469 0.0439469 -0.000128556 439.469 27497 37405.8 
247 10.2706 10.2706 0 0.0428589 0.0428589 -4.32902e-05 428.589 27103.3 37255.7 
287 9.4104 9.4104 0 0.0396154 0.0396154 8.43163e-05 396.154 30036.2 41642.5 
327 1.4952 1.4952 0 0.00631834 0.00631834 -3.07321e-05 134.297 21653.3 29224 
367 0.73 0.73 0 0.00100482 0.00100482 -5.66484e-05 31.8385 5469.61 7337.19 
407 0.7972 0.7972 0 0.000807874 0.000807874 1.6215e-05 35.4604 5306.8 7142.01 
447 0.8664 0.8664 0 0.000808032 0.000808032 -2.74584e-05 38.7387 5550.54 7470.51 
487 0.9032 0.9032 0 0.0006838 0.0006838 2.28501e-05 40.1621 5150.15 7068.27 
527 0.944 0.944 0 0.000665397 0.000665397 -2.29664e-05 41.6316 5068.46 6803.72 
567 0.9018 0.9018 0 0.000680847 0.000680847 3.56194e-05 39.2129 4589.05 6233.94 
607 0.8334 0.8334 0 0.000714618 0.000714618 1.95193e-05 36.659 4544.76 6251.07 
647 0.0408 0.0408 0 -0.000110912 -0.000110912 7.55211e-06 3.09074 367.565 626.526 
687 0.1244 0.1244 0 -0.000501328 -0.000501328 1.04383e-06 5.01328 474.551 657.775 
727 0.1838 0.1838 0 -0.000797704 -0.000797704 1.52505e-05 7.97704 660.406 985.102 
767 0.2062 0.2062 0 -0.000872863 -0.000872863 2.82833e-05 8.72863 543.388 859.204 
807 0.2162 0.2162 0 -0.000923763 -0.000923763 1.84986e-05 9.23763 693.285 993.338 
847 0.1956 0.1956 0 -0.000842999 -0.000842999 4.48678e-06 8.42999 731.588 1109.73 
887 0.1414 0.1414 0 -0.000600566 -0.000600566 1.44317e-05 6.00566 364.418 566.203 
927 0.0814 0.0814 0 -0.000310939 -0.000310939 4.02066e-06 3.10939 246.081 382.461 
967 0.2942 0.2942 0 0.000374194 0.000374194 2.91194e-05 26.4515 4406.88 5675.61 
1007 0.899 0.899 0 0.000665366 0.000665366 1.46411e-05 39.5689 4617.93 6259.01 
1047 0.9286 0.9286 0 0.000666462 0.000666462 3.81976e-05 40.503 4576.53 6280.67 
1087 0.929 0.929 0 0.000638475 0.000638475 2.24821e-05 40.5379 4937.04 6689.09 
1127 0.8972 0.8972 0 0.000747292 0.000747292 -4.61407e-06 40.1723 5492.7 7350.53 
1167 0.8172 0.8172 0 0.000757583 0.000757583 3.16073e-05 36.3929 5336.67 7079.88 
1207 0.7864 0.7864 0 0.000924556 0.000924556 1.70332e-06 34.5015 5476.58 7256.38 
1247 0.6828 0.6828 0 0.00116942 0.00116942 4.76303e-05 27.6386 4961.46 6857.12 
8 0.6526 0.6526 0 0.00207543 0.00207543 -3.55443e-05 55.7102 10604.1 14000.5 
48 8.7706 8.7706 0 0.0373194 0.0373194 -1.98715e-05 373.194 30571.4 42643.8 
88 10.1324 10.1324 0 0.0420784 0.0420784 -0.000183363 420.784 26849.4 37763 
128 10.662 10.662 0 0.0440777 0.0440777 -2.90362e-06 440.777 26544.8 36565.6 
168 10.597 10.597 0 0.0438655 0.0438655 -7.32474e-05 438.655 25348.9 35126.9 
208 10.5886 10.5886 0 0.0439971 0.0439971 -6.51928e-05 439.971 26135.9 36248.7 
248 10.2178 10.2178 0 0.0425031 0.0425031 2.41968e-05 425.031 27820.5 38015.9 
288 9.3934 9.3934 0 0.0397837 0.0397837 9.17194e-05 397.837 31428.3 43298.5 
328 1.322 1.322 0 0.00552273 0.00552273 -8.88151e-06 119.917 19602 26782.4 
368 0.7232 0.7232 0 0.000982069 0.000982069 -1.51344e-05 31.4686 5798.44 7608.6 
408 0.8004 0.8004 0 0.000795394 0.000795394 -2.75731e-05 35.6857 5902.29 7661 
448 0.8586 0.8586 0 0.000743233 0.000743233 -1.32047e-05 37.6653 5306.84 7240.6 
488 0.916 0.916 0 0.0006619 0.0006619 -5.73677e-05 40.6755 5173.65 7009.37 
528 0.9322 0.9322 0 0.000707601 0.000707601 -6.05123e-05 40.9856 5498.45 7379.71 
568 0.913 0.913 0 0.000630191 0.000630191 -3.13968e-05 40.2055 4796.14 6469.89 
608 0.8114 0.8114 0 0.000745021 0.000745021 -1.82702e-05 35.9386 4654.77 6232.73 
648 0.0332 0.0332 0 -8.85885e-05 -8.85885e-05 1.2961e-05 2.38563 301.68 485.827 
688 0.1106 0.1106 0 -0.000443502 -0.000443502 -4.74433e-06 4.43502 261.783 455.065 
728 0.1846 0.1846 0 -0.000777258 -0.000777258 -9.42699e-06 7.77258 544.706 810.778 
768 0.2112 0.2112 0 -0.000876121 -0.000876121 -1.19541e-05 8.76121 667.752 987.926 
808 0.2086 0.2086 0 -0.000895166 -0.000895166 -7.82924e-06 8.95166 623.125 975.066 
848 0.2124 0.2124 0 -0.000896624 -0.000896624 -2.19843e-06 8.96624 777.365 1056.84 
888 0.1434 0.1434 0 -0.000588064 -0.000588064 -2.76553e-05 5.88064 480.506 649.669 
928 0.0804 0.0804 0 -0.000302563 -0.000302563 -6.86378e-06 3.02563 237.752 387.596 
968 0.2954 0.2954 0 0.00037521 0.00037521 -2.2736e-05 27.4673 4131.83 5406.42 
1008 0.9042 0.9042 0 0.000728597 0.000728597 -1.96709e-05 39.804 4561.39 6190.03 
1048 0.9178 0.9178 0 0.000610754 0.000610754 1.26092e-06 40.5338 4967.64 6944.36 
1088 0.9336 0.9336 0 0.000687023 0.000687023 3.12145e-05 41.1578 5139.49 7109.84 
1128 0.901 0.901 0 0.000770144 0.000770144 2.07604e-05 40.2952 5179.63 7081.69 
1168 0.8586 0.8586 0 0.000802947 0.000802947 1.81454e-05 38.1873 5550.02 7360.33 
1208 0.7964 0.7964 0 0.00101688 0.00101688 1.33131e-05 35.2335 5887.08 7711.3 
1248 0.6698 0.6698 0 0.00123566 0.00123566 7.67005e-06 26.8236 5200.41 7135.3 
9 0.711 0.711 0 0.00238023 0.00238023 2.69051e-05 62.0621 11515.6 15599.4 
49 9.003 9.003 0 0.0382617 0.0382617 1.92637e-05 382.617 31965.1 44556.2 
89 10.2418 10.2418 0 0.0426031 0.0426031 7.5443e-05 426.031 28387 39479.8 
129 10.5418 10.5418 0 0.0437501 0.0437501 4.14993e-05 437.501 26612.3 36291.2 
169 10.6908 10.6908 0 0.0441451 0.0441451 -1.27266e-05 441.451 26600.6 36709.3 
209 10.6106 10.6106 0 0.0436986 0.0436986 0.000163313 436.986 27002.3 37640.7 
249 10.2556 10.2556 0 0.0428637 0.0428637 8.10712e-05 428.637 28122.2 38949.2 
289 9.325 9.325 0 0.0393647 0.0393647 -3.98952e-05 393.647 30354 41906.5 
329 1.2664 1.2664 0 0.00515842 0.00515842 2.40977e-05 114.156 19508.6 26362.2 
369 0.6892 0.6892 0 0.000934616 0.000934616 -1.13726e-06 30.4573 5355.33 6991.68 
409 0.7814 0.7814 0 0.000853985 0.000853985 -6.31974e-08 34.7531 5410.49 7076.17 
449 0.8642 0.8642 0 0.000767828 0.000767828 1.88448e-05 38.4676 5378.33 7216.46 
489 0.91 0.91 0 0.000699124 0.000699124 1.97839e-06 40.2374 4907.2 6864.06 
529 0.931 0.931 0 0.000700831 0.000700831 -1.1056e-05 41.0381 5125.48 6968.06 
569 0.9144 0.9144 0 0.000664896 0.000664896 -7.17933e-06 40.1488 4739.2 6574.45 
609 0.8138 0.8138 0 0.000739927 0.000739927 5.58246e-05 35.4793 4801.86 6373.35 
649 0.0352 0.0352 0 -9.69049e-05 -9.69049e-05 -1.01201e-06 2.50219 425.523 533.578 
689 0.1208 0.1208 0 -0.000488576 -0.000488576 -9.97447e-06 4.88576 351.977 544.12 
729 0.1688 0.1688 0 -0.000700982 -0.000700982 -2.03678e-06 7.00982 546.708 878.808 
769 0.2034 0.2034 0 -0.000880265 -0.000880265 -3.81481e-05 8.80265 666.32 1000.09 
809 0.2118 0.2118 0 -0.000901063 -0.000901063 -1.03942e-05 9.01063 719.575 1049.06 
849 0.1916 0.1916 0 -0.000823697 -0.000823697 6.57334e-06 8.23697 615.06 895.262 
889 0.1414 0.1414 0 -0.000593064 -0.000593064 -1.30344e-05 5.93064 500.831 686.153 
929 0.0742 0.0742 0 -0.000275617 -0.000275617 -1.25074e-05 2.75617 266.43 415.077 
969 0.65 0.65 0 0.000902617 0.000902617 2.28706e-05 29.3621 4760.07 6145.62 
1009 0.8692 0.8692 0 0.000618257 0.000618257 -1.33416e-05 37.8401 4530.95 5974.65 
1049 0.9228 0.9228 0 0.000696437 0.000696437 -2.20537e-05 40.6028 5070.56 6854.13 
1089 0.9326 0.9326 0 0.000657835 0.000657835 3.15086e-05 40.91 5277.53 7077.96 
1129 0.8856 0.8856 0 0.000710499 0.000710499 3.79935e-05 39.114 5311.39 6982.19 
1169 0.8332 0.8332 0 0.000811019 0.000811019 -1.07786e-05 36.4879 5130.77 6975.68 
1209 0.7644 0.7644 0 0.000960772 0.000960772 1.269e-05 34.2253 5728.94 7625.33 
10 0.7942 0.7942 0 0.00273655 0.00273655 -5.55742e-05 69.4277 12843.2 17282 
50 8.9422 8.9422 0 0.0380369 0.0380369 9.80829e-05 380.369 31220 42956 
90 10.1046 10.1046 0 0.0421336 0.0421336 7.07807e-05 421.336 27209.4 38098.6 
130 10.5186 10.5186 0 0.04359 0.04359 -0.000171946 435.9 26907 37437.8 
170 10.6448 10.6448 0 0.0439967 0.0439967 1.60645e-05 439.967 26874.8 37021.8 
210 10.5352 10.5352 0 0.043749 0.043749 0.000131738 437.49 26299.9 36742.9 
250 10.216 10.216 0 0.0422464 0.0422464 7.82822e-05 422.464 26852.8 37786.6 
290 9.257 9.257 0 0.0391222 0.0391222 -9.03605e-05 391.222 30944 43115.9 
330 1.2172 1.2172 0 0.00483872 0.00483872 -1.95862e-05 107.589 19397.8 26688.8 
370 0.7284 0.7284 0 0.000928714 0.000928714 1.18078e-05 31.8752 5372.08 7146.79 
410 0.8076 0.8076 0 0.000813884 0.000813884 -4.49367e-05 35.816 5535.87 7302.2 
450 0.8924 0.8924 0 0.000789267 0.000789267 3.79351e-06 39.4215 5427.98 7461.09 
490 0.9082 0.9082 0 0.000732086 0.000732086 -7.10839e-05 39.8161 5164.82 6880.64 
530 0.9326 0.9326 0 0.000628661 0.000628661 -8.90054e-06 41.2442 5033.31 7055.97 
570 0.8996 0.8996 0 0.000657149 0.000657149 -2.02657e-05 39.312 4375.9 6105.01 
610 0.8234 0.8234 0 0.000742402 0.000742402 -1.77627e-05 35.6836 4389.69 5888.56 
650 0.027 0.027 0 -7.68624e-05 -7.68624e-05 -1.02803e-05 1.8034 182.392 325.647 
690 0.1156 0.1156 0 -0.00045801 -0.00045801 7.23489e-06 4.5801 389.005 603.378 
730 0.1824 0.1824 0 -0.000763118 -0.000763118 -1.39541e-05 7.63118 678.709 1031.23 
770 0.2098 0.2098 0 -0.000904677 -0.000904677 -7.20007e-06 9.04677 731.197 1062.59 
810 0.2108 0.2108 0 -0.000934132 -0.000934132 3.85332e-06 9.34132 930.929 1212.35 
850 0.183 0.183 0 -0.000771215 -0.000771215 -1.65456e-06 7.71215 735.184 1005.57 
890 0.1448 0.1448 0 -0.000600064 -0.000600064 8.59023e-06 6.00064 431.066 655.893 
930 0.0754 0.0754 0 -0.000284111 -0.000284111 -1.19562e-05 2.84111 214.613 395.137 
970 0.66 0.66 0 0.000906565 0.000906565 3.51853e-05 29.7538 4849.21 6177.17 
1010 0.886 0.886 0 0.000669471 0.000669471 -5.19398e-05 38.8874 4692.63 6443.7 
1050 0.9242 0.9242 0 0.00067435 0.00067435 -1.22078e-05 40.7062 5116.51 6877.44 
1090 0.9148 0.9148 0 0.000671916 0.000671916 -3.73392e-05 40.0527 4890.97 6791.26 
1130 0.889 0.889 0 0.00070366 0.00070366 1.34127e-05 39.1238 5326.18 7377.81 
1170 0.836 0.836 0 0.000764201 0.000764201 1.58999e-05 37.4197 5305.7 6983.87 
1210 0.748 0.748 0 0.000851017 0.000851017 -6.04855e-06 33.2554 5581.15 7305.1 
11 0.8892 0.8892 0 0.00321206 0.00321206 3.08316e-05 78.2428 14409.2 19690.1 
51 9.0972 9.0972 0 0.038482 0.038482 -0.000118806 384.82 29806.3 41617.2 
91 10.1192 10.1192 0 0.0422184 0.0422184 5.80896e-05 422.184 27299.2 37314.9 
131 10.5542 10.5542 0 0.043667 0.043667 -3.50471e-05 436.67 26695.5 36636 
171 10.7176 10.7176 0 0.0441962 0.0441962 -6.69067e-05 441.962 26569.2 36907.5 
211 10.6164 10.6164 0 0.0440127 0.0440127 0.000116866 440.127 27429 37286.2 
251 10.2902 10.2902 0 0.0427489 0.0427489 1.04211e-05 427.489 28023.3 38636.9 
291 9.1108 9.1108 0 0.0386153 0.0386153 1.2953e-05 386.153 30526.7 42152.5 
331 1.1346 1.1346 0 0.00433273 0.00433273 -3.64464e-05 99.9376 16601.5 22771.4 
371 0.7226 0.7226 0 0.000981461 0.000981461 3.28737e-05 31.9932 5487.52 7430.95 
411 0.7988 0.7988 0 0.000783702 0.000783702 5.99662e-05 35.637 5416.18 7206.52 
451 0.8786 0.8786 0 0.000751639 0.000751639 -1.695e-05 39.1273 5149.89 7109.43 
491 0.9228 0.9228 0 0.000721934 0.000721934 4.5916e-05 40.8184 5333.39 7259.15 
531 0.9418 0.9418 0 0.000678872 0.000678872 2.89197e-05 41.3695 5114.79 7050.21 
571 0.9162 0.9162 0 0.000725281 0.000725281 -3.37809e-05 40.0159 4932.09 6752.42 
611 0.7854 0.7854 0 0.000775754 0.000775754 4.54752e-05 34.1034 4532.72 6283.62 
651 0.0292 0.0292 0 -9.90586e-05 -9.90586e-05 4.42789e-06 2.21387 251.362 420.219 
691 0.1202 0.1202 0 -0.000496157 -0.000496157 -1.59712e-05 4.96157 452.407 673.796 
731 0.1744 0.1744 0 -0.000731528 -0.000731528 -1.65403e-05 7.31528 568.076 812.564 
771 0.2064 0.2064 0 -0.000888801 -0.000888801 -9.25495e-06 8.88801 603.901 938.064 
811 0.218 0.218 0 -0.000927798 -0.000927798 3.64732e-06 9.27798 898.205 1292.99 
851 0.1992 0.1992 0 -0.000867412 -0.000867412 7.54548e-06 8.67412 709.427 1013.07 
891 0.1486 0.1486 0 -0.000610003 -0.000610003 6.41965e-06 6.10003 472.247 764.118 
931 0.066 0.066 0 -0.000253043 -0.000253043 1.10315e-05 2.53043 177.032 310.806 
971 0.6706 0.6706 0 0.000888207 0.000888207 3.67373e-05 29.8257 4151.29 5506.85 
1011 0.8986 0.8986 0 0.00067099 0.00067099 3.01779e-07 39.8123 4836.77 6665.54 
1051 0.9322 0.9322 0 0.000653064 0.000653064 -1.96546e-05 40.6629 4803.06 6528.05 
1091 0.9158 0.9158 0 0.000699881 0.000699881 2.05708e-05 40.1567 5233.79 6962.02 
1131 0.8958 0.8958 0 0.000731368 0.000731368 3.81662e-05 39.7137 5556.28 7443.66 
1171 0.811 0.811 0 0.000816663 0.000816663 4.70965e-06 35.9931 5225.89 7027.34 
1211 0.7366 0.7366 0 0.000933561 0.000933561 8.32064e-06 32.3097 5257.17 7129.95 
12 0.898 0.898 0 0.00325633 0.00325633 4.3848e-05 78.842 14145.3 18651.3 
52 9.1368 9.1368 0 0.0385581 0.0385581 0.00010463 385.581 31528.3 43102.4 
92 10.1694 10.1694 0 0.0424484 0.0424484 -1.52406e-05 424.484 28100.5 38681.7 
132 10.6274 10.6274 0 0.0440017 0.0440017 -5.22707e-05 440.017 26071.9 36044.9 
172 10.6766 10.6766 0 0.0440904 0.0440904 7.67924e-05 440.904 25807.2 35638.4 
212 10.5928 10.5928 0 0.0437844 0.0437844 -2.42356e-05 437.844 25752.2 35879.6 
252 10.232 10.232 0 0.0426185 0.0426185 7.84387e-06 426.185 28257.4 38726.9 
292 9.176 9.176 0 0.0389737 0.0389737 7.52179e-05 389.737 30848.4 42827.3 
332 1.0034 1.0034 0 0.00375987 0.00375987 4.89433e-06 88.3879 15555.9 21199.9 
372 0.7228 0.7228 0 0.000993584 0.000993584 3.30828e-06 31.481 5862.89 7687.49 
412 0.8074 0.8074 0 0.000838372 0.000838372 4.901e-05 35.8938 5786.16 7705.89 
452 0.8946 0.8946 0 0.000677626 0.000677626 -1.11303e-05 39.7885 5332.75 7250.42 
492 0.918 0.918 0 0.00070537 0.00070537 -5.13458e-05 40.4647 5211.4 7171.5 
532 0.9138 0.9138 0 0.000650644 0.000650644 2.67476e-05 39.8941 5038.22 6878.48 
572 0.915 0.915 0 0.00064956 0.00064956 -1.4642e-06 39.7783 4662.07 6342.81 
612 0.7776 0.7776 0 0.000733671 0.000733671 2.2813e-05 33.956 4295.81 5710.23 
652 0.0284 0.0284 0 -9.38413e-05 -9.38413e-05 1.7102e-06 2.07308 187.833 282.037 
692 0.125 0.125 0 -0.000523404 -0.000523404 -2.19647e-05 5.23404 499.085 690.111 
732 0.1924 0.1924 0 -0.000820224 -0.000820224 1.06627e-05 8.20224 587.843 918.663 
772 0.2136 0.2136 0 -0.000920985 -0.000920985 2.49748e-05 9.20985 713.791 1037.72 
812 0.2212 0.2212 0 -0.000956135 -0.000956135 2.18488e-05 9.56135 811.729 1088.38 
852 0.1798 0.1798 0 -0.000768848 -0.000768848 1.15604e-05 7.68848 623.55 904.863 
892 0.1448 0.1448 0 -0.000602548 -0.000602548 1.40186e-05 6.02548 354.007 610.049 