ITEM: TIMESTEP
25000
ITEM: NUMBER OF SURFS
1260
ITEM: BOX BOUNDS oo rr pp
0 0.3
0 0.3
-0.5 0.5
ITEM: SURFS id f_4[1] f_4[2] f_4[3] f_4[4] f_4[5] f_4[6] f_4[7] f_4[8] f_4[9] 
1 0.0122 0.0122 0 5.09101e-07 5.09101e-07 9.05795e-08 0.56966 371.584 437.14 
41 6.6962 6.6962 0 0.000516869 0.000516869 1.03113e-07 5.1549 2287.55 2511.73 
81 6.8918 6.8918 0 0.000509615 0.000509615 -1.45219e-06 5.08255 2146.7 2381.31 
121 6.952 6.952 0 0.000499798 0.000499798 -7.48132e-07 4.98465 2102.01 2343.44 
161 7.0138 7.0138 0 0.000503487 0.000503487 -3.15922e-07 5.02144 2082.6 2327.61 
201 6.9816 6.9816 0 0.000502245 0.000502245 9.19971e-07 5.00904 2069.66 2307 
241 6.895 6.895 0 0.000507471 0.000507471 -3.05584e-07 5.06117 2137.35 2374.08 
281 6.7724 6.7724 0 0.000514498 0.000514498 -6.85291e-07 5.13125 2235.59 2466.48 
321 0.0436 0.0436 0 3.42823e-06 3.42823e-06 -6.48033e-08 3.44297 1727.18 1894.39 
361 0.8392 0.8392 0 3.21367e-05 3.21367e-05 -1.66745e-07 0.387995 254.863 282.67 
401 0.8128 0.8128 0 3.25006e-05 3.25006e-05 -3.59441e-07 0.380128 255.791 282.938 
441 0.8152 0.8152 0 3.32516e-05 3.32516e-05 -4.45731e-07 0.380264 262.385 288.661 
481 0.7586 0.7586 0 3.15575e-05 3.15575e-05 -2.3893e-07 0.352241 250.257 275.132 
521 0.7534 0.7534 0 3.22552e-05 3.22552e-05 -3.68233e-07 0.351786 251.083 274.79 
561 0.7262 0.7262 0 3.13574e-05 3.13574e-05 1.20894e-07 0.336906 247.498 270.207 
601 0.7012 0.7012 0 3.16887e-05 3.16887e-05 -8.10487e-08 0.326565 247.179 266.967 
641 0 0 0 0 0 0 0 0 0 
681 0.0032 0.0032 0 -9.05184e-08 -9.05184e-08 3.61679e-08 0.000902768 0.0643371 0.170301 
721 0.0024 0.0024 0 -6.87888e-08 -6.87888e-08 1.00775e-08 0.000686052 0.187335 0.359466 
761 0.0028 0.0028 0 -7.97535e-08 -7.97535e-08 -1.28701e-08 0.000795406 0.167606 0.264088 
801 0.0018 0.0018 0 -4.33933e-08 -4.33933e-08 4.24158e-08 0.000432775 0.137156 0.152739 
841 0.0022 0.0022 0 -7.69212e-08 -7.69212e-08 2.58282e-08 0.000767159 0.183803 0.258437 
881 0.0024 0.0024 0 -7.97504e-08 -7.97504e-08 1.05249e-08 0.000795376 -0.103189 -0.0263292 
921 0.0032 0.0032 0 -1.03403e-07 -1.03403e-07 1.03348e-08 0.00103127 0.0628703 0.292856 
961 0.0052 0.0052 0 1.83171e-07 1.83171e-07 -1.63646e-08 0.234331 162.89 177.309 
1001 0.7228 0.7228 0 3.18715e-05 3.18715e-05 -3.47094e-07 0.337847 246.806 269.458 
1041 0.7598 0.7598 0 3.22767e-05 3.22767e-05 6.19617e-07 0.353297 251.504 275.385 
1081 0.7554 0.7554 0 3.1444e-05 3.1444e-05 2.15266e-07 0.355419 242.33 264.576 
1121 0.7694 0.7694 0 3.1768e-05 3.1768e-05 6.3601e-07 0.353646 247.466 271.622 
1161 0.81 0.81 0 3.32705e-05 3.32705e-05 7.20742e-07 0.380582 266.187 293.844 
1201 0.8368 0.8368 0 3.38486e-05 3.38486e-05 -1.67778e-07 0.38768 263.586 292.038 
1241 0.8846 0.8846 0 3.39673e-05 3.39673e-05 -6.49897e-07 0.41485 265.359 296.695 
2 0.0126 0.0126 0 5.91388e-07 5.91388e-07 -2.27014e-08 0.575295 436.906 436.427 
42 6.6882 6.6882 0 0.000515274 0.000515274 1.73404e-07 5.13899 2269.41 2494.97 
82 6.8862 6.8862 0 0.000507244 0.000507244 1.19349e-06 5.05891 2153.35 2390.06 
122 6.9332 6.9332 0 0.000501001 0.000501001 1.43597e-07 4.99664 2077.31 2321.7 
162 6.939 6.939 0 0.000496652 0.000496652 -5.01617e-07 4.95327 2043.07 2283.63 
202 7.0126 7.0126 0 0.000504867 0.000504867 2.12571e-06 5.0352 2109.53 2352.93 
242 6.9472 6.9472 0 0.000508148 0.000508148 1.01116e-06 5.06792 2127.24 2363.94 
282 6.7942 6.7942 0 0.000518313 0.000518313 -6.32196e-08 5.1693 2298.9 2526.46 
322 0.0396 0.0396 0 3.1384e-06 3.1384e-06 4.33569e-08 3.08512 1712.11 1780.78 
362 0.8324 0.8324 0 3.26228e-05 3.26228e-05 3.26125e-07 0.387518 259.981 289.622 
402 0.8268 0.8268 0 3.28577e-05 3.28577e-05 -5.00558e-07 0.384554 256.386 280.473 
442 0.7964 0.7964 0 3.25592e-05 3.25592e-05 2.56628e-07 0.371934 256.226 283.758 
482 0.7842 0.7842 0 3.26051e-05 3.26051e-05 3.17515e-08 0.366882 258.573 283.474 
522 0.7574 0.7574 0 3.30759e-05 3.30759e-05 1.34283e-07 0.354186 255.39 280.736 
562 0.723 0.723 0 3.16892e-05 3.16892e-05 -1.60266e-07 0.336824 247.722 269.509 
602 0.7092 0.7092 0 3.14482e-05 3.14482e-05 5.7668e-07 0.330231 243.329 265.672 
642 0.0002 0.0002 0 -2.73699e-09 -2.73699e-09 -2.66462e-09 0.00660539 4.08561 6.62193 
682 0.0026 0.0026 0 -8.31901e-08 -8.31901e-08 1.80655e-08 0.000829681 0.139935 0.263191 
722 0.0024 0.0024 0 -6.71964e-08 -6.71964e-08 -9.8375e-09 0.000670171 0.227682 0.246202 
762 0.002 0.002 0 -5.06558e-08 -5.06558e-08 1.72843e-08 0.000505206 0.156778 0.207064 
802 0.0022 0.0022 0 -7.21766e-08 -7.21766e-08 -1.2221e-09 0.00071984 0.274321 0.376931 
842 0.0034 0.0034 0 -1.04932e-07 -1.04932e-07 8.03119e-09 0.00104652 0.161799 0.144064 
882 0.0038 0.0038 0 -8.70993e-08 -8.70993e-08 9.9233e-09 0.000868669 0.228877 0.326782 
922 0.0024 0.0024 0 -4.91198e-08 -4.91198e-08 2.48547e-08 0.000489888 0.175538 0.187239 
962 0.6758 0.6758 0 3.20141e-05 3.20141e-05 -1.19644e-07 0.311977 241.846 263.564 
1002 0.7254 0.7254 0 3.19955e-05 3.19955e-05 3.15189e-08 0.339327 245.556 269.767 
1042 0.7462 0.7462 0 3.19109e-05 3.19109e-05 -2.14985e-07 0.346276 253.084 277.904 
1082 0.7586 0.7586 0 3.22244e-05 3.22244e-05 -2.41516e-07 0.352838 254.83 276.691 
1122 0.7608 0.7608 0 3.13906e-05 3.13906e-05 4.75124e-07 0.354251 246.431 267.86 
1162 0.8144 0.8144 0 3.29927e-05 3.29927e-05 3.87769e-07 0.379477 263.577 289.423 
1202 0.8184 0.8184 0 3.29089e-05 3.29089e-05 -8.43407e-07 0.38112 266.247 293.629 
1242 0.886 0.886 0 3.40263e-05 3.40263e-05 -1.1779e-07 0.414415 272.051 303.341 
3 0.0158 0.0158 0 8.42171e-07 8.42171e-07 8.26102e-08 0.854729 572.616 623.161 
43 6.7342 6.7342 0 0.000518455 0.000518455 -1.51179e-06 5.17072 2263 2499.21 
83 6.8168 6.8168 0 0.000501566 0.000501566 -3.56988e-07 5.00227 2127.98 2358.48 
123 6.9804 6.9804 0 0.000502925 0.000502925 -8.00713e-08 5.01583 2083.23 2323.44 
163 7.0078 7.0078 0 0.000504155 0.000504155 -7.4755e-08 5.0281 2068.45 2315.28 
203 6.9796 6.9796 0 0.00050301 0.00050301 2.30944e-06 5.01668 2100.5 2347.67 
243 6.8918 6.8918 0 0.00050483 0.00050483 8.2125e-07 5.03483 2107.66 2345.79 
283 6.708 6.708 0 0.000512335 0.000512335 4.74044e-07 5.10968 2227.72 2448.35 
323 0.0452 0.0452 0 3.48851e-06 3.48851e-06 -2.44987e-08 3.50954 1940.11 2145.5 
363 0.854 0.854 0 3.30955e-05 3.30955e-05 -1.58102e-08 0.39922 267.055 295.342 
403 0.8182 0.8182 0 3.32543e-05 3.32543e-05 -3.28431e-07 0.382165 265.324 291.463 
443 0.7996 0.7996 0 3.27931e-05 3.27931e-05 1.31648e-06 0.370614 262.614 289.314 
483 0.7684 0.7684 0 3.13222e-05 3.13222e-05 -6.16262e-07 0.354957 246.271 268.618 
523 0.7606 0.7606 0 3.12473e-05 3.12473e-05 -2.24672e-07 0.35426 242.502 265.285 
563 0.7028 0.7028 0 3.09478e-05 3.09478e-05 2.97957e-07 0.327259 238.793 261.736 
603 0.7178 0.7178 0 3.17179e-05 3.17179e-05 2.04861e-08 0.340651 248.567 271.428 
643 0 0 0 0 0 0 0 0 0 
683 0.0012 0.0012 0 -3.66882e-08 -3.66882e-08 -8.30821e-11 0.000365903 0.0210023 0.0378465 
723 0.0022 0.0022 0 -6.47458e-08 -6.47458e-08 -4.44976e-08 0.00064573 0.122411 0.194439 
763 0.0024 0.0024 0 -9.52538e-08 -9.52538e-08 2.12867e-08 0.000949996 0.0520924 0.193551 
803 0.0028 0.0028 0 -1.00842e-07 -1.00842e-07 2.3358e-08 0.00100573 0.108167 0.229311 
843 0.0026 0.0026 0 -8.85875e-08 -8.85875e-08 6.37471e-09 0.000883511 0.0862514 0.0388954 
883 0.003 0.003 0 -7.6839e-08 -7.6839e-08 -1.35743e-08 0.000766339 -0.0243836 0.161037 
923 0.0038 0.0038 0 -1.13273e-07 -1.13273e-07 -4.75522e-08 0.00112971 0.293823 0.393855 
963 0.6636 0.6636 0 3.03812e-05 3.03812e-05 -2.00353e-07 0.310624 235.829 256.528 
1003 0.7104 0.7104 0 3.05346e-05 3.05346e-05 1.45472e-07 0.334389 237.505 258.951 
1043 0.7326 0.7326 0 3.23679e-05 3.23679e-05 -5.44706e-07 0.339674 248.934 272.434 
1083 0.748 0.748 0 3.16334e-05 3.16334e-05 5.25758e-07 0.354653 250.706 272.573 
1123 0.7642 0.7642 0 3.1857e-05 3.1857e-05 7.73963e-07 0.354331 248.142 271.875 
1163 0.7878 0.7878 0 3.23264e-05 3.23264e-05 2.12233e-07 0.364966 252.95 277.035 
1203 0.8356 0.8356 0 3.37265e-05 3.37265e-05 2.2893e-08 0.390417 265.918 292.449 
1243 0.8646 0.8646 0 3.37136e-05 3.37136e-05 -7.13827e-07 0.402269 263.274 293.219 
4 0.0186 0.0186 0 1.00149e-06 1.00149e-06 1.43311e-08 1.10118 651.964 714.443 
44 6.8166 6.8166 0 0.000525447 0.000525447 1.42487e-06 5.24045 2317.18 2544.94 
84 6.8816 6.8816 0 0.0005072 0.0005072 -2.35528e-07 5.05847 2150.8 2385.53 
124 6.9834 6.9834 0 0.000503301 0.000503301 -5.0455e-07 5.01958 2105.25 2344.54 
164 6.9692 6.9692 0 0.000501445 0.000501445 -1.28913e-06 5.00107 2081.31 2322.52 
204 7.0056 7.0056 0 0.000500509 0.000500509 -3.57365e-07 4.99174 2070.9 2311.53 
244 6.8792 6.8792 0 0.000504736 0.000504736 -9.37005e-07 5.03389 2123.43 2365.81 
284 6.7376 6.7376 0 0.000514293 0.000514293 -2.48752e-06 5.1292 2251.64 2490.14 
324 0.0358 0.0358 0 2.64351e-06 2.64351e-06 -5.84968e-08 2.63901 1468.25 1580.17 
364 0.8392 0.8392 0 3.26952e-05 3.26952e-05 -3.67232e-08 0.393156 256.432 286.903 
404 0.839 0.839 0 3.38651e-05 3.38651e-05 -3.762e-07 0.385381 265.427 291.095 
444 0.7862 0.7862 0 3.23769e-05 3.23769e-05 -3.33707e-07 0.365076 253.966 281.181 
484 0.7766 0.7766 0 3.31323e-05 3.31323e-05 -3.71267e-07 0.358912 260.981 284.181 
524 0.7524 0.7524 0 3.1151e-05 3.1151e-05 4.30648e-07 0.350659 246.795 269.456 
564 0.7288 0.7288 0 3.228e-05 3.228e-05 7.33021e-08 0.34235 251.387 272.44 
604 0.7058 0.7058 0 3.13264e-05 3.13264e-05 2.13904e-08 0.330693 238.981 263.399 
644 0 0 0 0 0 0 0 0 0 
684 0.0036 0.0036 0 -1.22431e-07 -1.22431e-07 2.65493e-08 0.00122104 0.123391 0.311567 
724 0.0012 0.0012 0 -3.62703e-08 -3.62703e-08 -1.04895e-08 0.000361735 0.0276863 0.0582671 
764 0.0022 0.0022 0 -6.87037e-08 -6.87037e-08 2.43831e-08 0.000685203 -0.00202976 -0.00214952 
804 0.0032 0.0032 0 -9.81893e-08 -9.81893e-08 1.29312e-08 0.000979273 0.403876 0.575943 
844 0.0024 0.0024 0 -5.67678e-08 -5.67678e-08 -1.9854e-08 0.000566163 0.146373 0.248288 
884 0.0036 0.0036 0 -1.2032e-07 -1.2032e-07 1.19753e-08 0.00119999 0.242802 0.460512 
924 0.0036 0.0036 0 -1.12534e-07 -1.12534e-07 -8.81948e-09 0.00112234 0.0640203 0.182121 
964 0.6866 0.6866 0 3.16143e-05 3.16143e-05 -7.98667e-09 0.315319 244.269 268.711 
1004 0.712 0.712 0 3.1683e-05 3.1683e-05 -4.6959e-07 0.329861 246.641 268.224 
1044 0.7598 0.7598 0 3.31716e-05 3.31716e-05 -7.73367e-07 0.355746 261.47 281.875 
1084 0.7822 0.7822 0 3.30698e-05 3.30698e-05 -5.26337e-07 0.369536 261.921 286.215 
1124 0.772 0.772 0 3.19439e-05 3.19439e-05 -3.11114e-07 0.363374 250.675 273.7 
1164 0.7884 0.7884 0 3.14091e-05 3.14091e-05 -1.13687e-07 0.367263 249.728 276.652 
1204 0.8402 0.8402 0 3.37719e-05 3.37719e-05 -1.25524e-07 0.389888 270.608 297.844 
1244 0.8548 0.8548 0 3.33415e-05 3.33415e-05 2.00967e-07 0.402249 268.504 299.023 
5 0.021 0.021 0 1.32355e-06 1.32355e-06 -9.2898e-09 1.26989 788.628 880.461 
45 6.7086 6.7086 0 0.000514549 0.000514549 1.94898e-06 5.13176 2264.33 2495.01 
85 6.855 6.855 0 0.000504404 0.000504404 1.55573e-06 5.03058 2124.3 2356.06 
125 6.9886 6.9886 0 0.000503953 0.000503953 1.93826e-06 5.02609 2087.01 2330.87 
165 6.9728 6.9728 0 0.000496181 0.000496181 -9.82558e-07 4.94857 2040.29 2281.73 
205 6.9978 6.9978 0 0.000503894 0.000503894 4.04061e-07 5.0255 2086.93 2323.49 
245 6.84 6.84 0 0.000503648 0.000503648 -1.1269e-06 5.02304 2140.74 2375.52 
285 6.7042 6.7042 0 0.00051131 0.00051131 -1.78632e-06 5.09945 2243.22 2470.61 
325 0.0332 0.0332 0 2.32574e-06 2.32574e-06 -4.71663e-09 2.2079 1334.86 1397.04 
365 0.8542 0.8542 0 3.38189e-05 3.38189e-05 4.80842e-07 0.394539 273.075 301.661 
405 0.7986 0.7986 0 3.15877e-05 3.15877e-05 5.2403e-07 0.374471 247.83 274.144 
445 0.7806 0.7806 0 3.23226e-05 3.23226e-05 -4.17042e-07 0.367742 257.779 282.395 
485 0.7892 0.7892 0 3.24991e-05 3.24991e-05 -7.00141e-07 0.370754 259.824 285.893 
525 0.7728 0.7728 0 3.32425e-05 3.32425e-05 -3.00535e-07 0.366172 258.071 282.362 
565 0.7356 0.7356 0 3.19521e-05 3.19521e-05 -1.6225e-07 0.344375 249.8 271.976 
605 0.682 0.682 0 3.09513e-05 3.09513e-05 1.56342e-07 0.319761 240.461 258.574 
645 0.0002 0.0002 0 -4.71671e-09 -4.71671e-09 2.53346e-09 0.00526225 0.527685 0.0752815 
685 0.004 0.004 0 -1.07333e-07 -1.07333e-07 -1.67405e-08 0.00107046 0.0957055 0.0920603 
725 0.0028 0.0028 0 -8.64649e-08 -8.64649e-08 -3.26048e-08 0.000862342 0.0373577 0.205765 
765 0.0026 0.0026 0 -8.20027e-08 -8.20027e-08 -1.28832e-08 0.000817839 0.166599 0.162857 
805 0.0016 0.0016 0 -3.29163e-08 -3.29163e-08 1.74227e-08 0.000328285 0.0306788 0.0680708 
845 0.0024 0.0024 0 -6.46395e-08 -6.46395e-08 1.71786e-08 0.00064467 0.117082 0.238801 
885 0.0044 0.0044 0 -1.39905e-07 -1.39905e-07 1.27282e-08 0.00139532 0.219136 0.504573 
925 0.003 0.003 0 -8.55539e-08 -8.55539e-08 -1.98814e-09 0.000853256 0.0531802 0.117563 
965 0.7054 0.7054 0 3.19543e-05 3.19543e-05 -3.37542e-08 0.326068 248.798 269.569 
1005 0.6958 0.6958 0 3.04248e-05 3.04248e-05 -9.26297e-08 0.327083 233.853 255.625 
1045 0.7486 0.7486 0 3.18325e-05 3.18325e-05 -6.5289e-07 0.348522 247.446 271.532 
1085 0.7626 0.7626 0 3.23593e-05 3.23593e-05 2.58482e-07 0.353185 255.483 279.456 
1125 0.7916 0.7916 0 3.24851e-05 3.24851e-05 -1.29342e-07 0.367048 256.662 283.316 
1165 0.8198 0.8198 0 3.34431e-05 3.34431e-05 2.63317e-07 0.38213 262.559 289.052 
1205 0.8156 0.8156 0 3.24646e-05 3.24646e-05 8.89374e-07 0.37944 260.062 290.05 
1245 0.8752 0.8752 0 3.33508e-05 3.33508e-05 2.72974e-07 0.408597 262.716 297.986 
6 0.028 0.028 0 1.69672e-06 1.69672e-06 -9.44146e-08 1.82179 943.239 1030.29 
46 6.657 6.657 0 0.000510872 0.000510872 -1.30222e-06 5.09508 2223.3 2450.08 
86 6.9456 6.9456 0 0.000509769 0.000509769 2.68493e-07 5.08409 2157.38 2404.21 
126 6.9814 6.9814 0 0.000502842 0.000502842 -6.3207e-07 5.015 2087.16 2331.09 
166 6.9976 6.9976 0 0.000499465 0.000499465 -1.1094e-06 4.98132 2069.43 2317.31 
206 6.9892 6.9892 0 0.000505995 0.000505995 9.03113e-07 5.04644 2071.8 2316.84 
246 6.9082 6.9082 0 0.000506912 0.000506912 -8.89616e-08 5.05559 2131.37 2369.5 
286 6.745 6.745 0 0.000514285 0.000514285 -1.17794e-06 5.12913 2237.45 2467.18 
326 0.0232 0.0232 0 1.66527e-06 1.66527e-06 6.03196e-08 1.57016 1075.3 1177.23 
366 0.8584 0.8584 0 3.35035e-05 3.35035e-05 7.35772e-07 0.394361 262.873 289.499 
406 0.8118 0.8118 0 3.22705e-05 3.22705e-05 -1.55621e-08 0.372406 258.447 287.111 
446 0.78 0.78 0 3.19613e-05 3.19613e-05 6.32663e-07 0.36728 251.987 277.438 
486 0.7386 0.7386 0 3.0376e-05 3.0376e-05 1.55724e-07 0.347199 244.483 269.638 
526 0.7358 0.7358 0 3.15885e-05 3.15885e-05 7.62966e-08 0.343845 249.119 271.646 
566 0.7518 0.7518 0 3.2505e-05 3.2505e-05 1.26218e-07 0.346638 253.7 276.982 
606 0.693 0.693 0 3.07533e-05 3.07533e-05 -3.57616e-07 0.323162 239.348 259.928 
646 0 0 0 0 0 0 0 0 0 
686 0.0036 0.0036 0 -7.92363e-08 -7.92363e-08 1.84564e-08 0.000790248 0.1531 0.18208 
726 0.0022 0.0022 0 -6.80327e-08 -6.80327e-08 -2.49462e-08 0.000678512 0.123034 0.192772 
766 0.0022 0.0022 0 -7.45018e-08 -7.45018e-08 -4.30356e-08 0.00074303 0.0778777 0.0794809 
806 0.002 0.002 0 -5.01204e-08 -5.01204e-08 -2.37573e-08 0.000499866 -0.00142078 0.110729 
846 0.0032 0.0032 0 -1.18578e-07 -1.18578e-07 1.70621e-09 0.00118261 0.225053 0.330308 
886 0.0024 0.0024 0 -6.59628e-08 -6.59628e-08 -5.44472e-10 0.000657867 0.175064 0.39912 
926 0.0024 0.0024 0 -7.76499e-08 -7.76499e-08 -1.44239e-08 0.000774427 0.116414 0.236097 
966 0.6964 0.6964 0 3.17507e-05 3.17507e-05 -4.15225e-07 0.326684 245.424 266.86 
1006 0.7292 0.7292 0 3.19101e-05 3.19101e-05 6.11144e-07 0.341575 249.223 270.292 
1046 0.7322 0.7322 0 3.1457e-05 3.1457e-05 6.4724e-07 0.342322 247.387 268.237 
1086 0.7522 0.7522 0 3.1569e-05 3.1569e-05 1.55352e-07 0.35222 246.794 271.898 
1126 0.7516 0.7516 0 3.05311e-05 3.05311e-05 -8.16335e-08 0.348491 237.598 261.817 
1166 0.8092 0.8092 0 3.27121e-05 3.27121e-05 1.43901e-07 0.380417 258.882 286.04 
1206 0.8056 0.8056 0 3.18633e-05 3.18633e-05 4.55247e-07 0.378373 253.301 279.897 
1246 0.872 0.872 0 3.40652e-05 3.40652e-05 2.77478e-07 0.404783 270.686 304.426 
7 0.0278 0.0278 0 2.0774e-06 2.0774e-06 -6.79353e-08 1.89233 1306.53 1412.09 
47 6.7476 6.7476 0 0.000514394 0.000514394 -1.08315e-07 5.13022 2259.74 2492.11 
87 6.8756 6.8756 0 0.00050195 0.00050195 -1.91393e-06 5.00611 2125.69 2360.09 
127 7.0282 7.0282 0 0.000507244 0.000507244 -1.51085e-07 5.0589 2107.37 2355.28 
167 6.9844 6.9844 0 0.000501031 0.000501031 -9.78116e-07 4.99694 2061.36 2301.75 
207 6.9564 6.9564 0 0.000503081 0.000503081 -2.46874e-07 5.01738 2095.17 2331.13 
247 6.8998 6.8998 0 0.000506911 0.000506911 1.98453e-06 5.05558 2124.66 2373.67 
287 6.7072 6.7072 0 0.000514215 0.000514215 6.53382e-07 5.12843 2252.81 2482.87 
327 0.0236 0.0236 0 1.55677e-06 1.55677e-06 -1.55437e-08 1.47102 992.763 1043.43 
367 0.8456 0.8456 0 3.32852e-05 3.32852e-05 -3.05019e-08 0.397102 266.038 292.569 
407 0.819 0.819 0 3.38536e-05 3.38536e-05 -5.89677e-08 0.382429 263.957 292.959 
447 0.793 0.793 0 3.23744e-05 3.23744e-05 -6.08214e-09 0.365345 254.204 280.714 
487 0.7744 0.7744 0 3.21932e-05 3.21932e-05 1.76386e-07 0.363533 257.41 282.013 
527 0.7516 0.7516 0 3.21896e-05 3.21896e-05 -1.46261e-07 0.351469 252.744 277.448 
567 0.7458 0.7458 0 3.24361e-05 3.24361e-05 -4.77359e-08 0.352514 254.095 275.455 
607 0.7046 0.7046 0 3.213e-05 3.213e-05 -1.5134e-07 0.33266 251.106 274.484 
647 0.004 0.004 0 -1.3155e-07 -1.3155e-07 2.8333e-08 0.00131199 0.124533 0.311618 
687 0.0028 0.0028 0 -9.65512e-08 -9.65512e-08 -6.06103e-09 0.000962936 0.19134 0.265035 
727 0.002 0.002 0 -5.22924e-08 -5.22924e-08 1.76164e-08 0.000521529 0.126411 0.164906 
767 0.0026 0.0026 0 -6.81631e-08 -6.81631e-08 2.3058e-08 0.000679812 0.164144 0.254546 
807 0.0022 0.0022 0 -6.8974e-08 -6.8974e-08 -1.79315e-08 0.000687899 0.100959 0.205944 
847 0.0016 0.0016 0 -5.82229e-08 -5.82229e-08 1.34792e-09 0.000580676 0.0905108 0.258175 
887 0.0024 0.0024 0 -5.99361e-08 -5.99361e-08 3.34175e-08 0.000597762 0.234211 0.495678 
927 0.0038 0.0038 0 -1.41713e-07 -1.41713e-07 -2.46158e-08 0.00141334 0.110083 0.186256 
967 0.6766 0.6766 0 3.05918e-05 3.05918e-05 4.862e-08 0.316902 235.458 257.203 
1007 0.7256 0.7256 0 3.22988e-05 3.22988e-05 -5.72687e-07 0.33923 249.876 272.198 
1047 0.7342 0.7342 0 3.08218e-05 3.08218e-05 1.72295e-08 0.347807 244.228 263.816 
1087 0.7442 0.7442 0 3.0883e-05 3.0883e-05 3.80673e-07 0.344388 243.703 268.832 
1127 0.7644 0.7644 0 3.17544e-05 3.17544e-05 5.21885e-07 0.359295 256.004 280.102 
1167 0.8034 0.8034 0 3.26796e-05 3.26796e-05 1.20991e-07 0.375751 255.931 283.104 
1207 0.814 0.814 0 3.27737e-05 3.27737e-05 -3.80873e-07 0.379879 261.439 287.096 
1247 0.8644 0.8644 0 3.28734e-05 3.28734e-05 -8.85121e-07 0.40192 258.151 287.219 
8 0.032 0.032 0 2.4105e-06 2.4105e-06 -9.78161e-08 2.12961 1446.52 1536.61 
48 6.761 6.761 0 0.000516718 0.000516718 -1.40014e-06 5.15339 2265.06 2497.22 
88 6.872 6.872 0 0.000504087 0.000504087 2.19897e-07 5.02741 2125.55 2373.2 
128 6.9862 6.9862 0 0.00050369 0.00050369 6.42136e-07 5.02346 2104.51 2337.65 
168 7.0552 7.0552 0 0.000505382 0.000505382 1.53964e-07 5.04033 2075.85 2324.34 
208 6.9954 6.9954 0 0.00050344 0.00050344 1.71345e-06 5.02097 2098.24 2344.61 
248 6.8712 6.8712 0 0.000504118 0.000504118 5.66249e-08 5.02773 2129.93 2367.27 
288 6.6592 6.6592 0 0.000513907 0.000513907 -1.15662e-06 5.12536 2246.81 2476.16 
328 0.021 0.021 0 1.22496e-06 1.22496e-06 -6.80322e-09 1.29747 777.068 896.954 
368 0.8404 0.8404 0 3.22937e-05 3.22937e-05 -1.89576e-07 0.390697 253.192 282.173 
408 0.7976 0.7976 0 3.18941e-05 3.18941e-05 2.16292e-07 0.371186 245.424 272.697 
448 0.7942 0.7942 0 3.31681e-05 3.31681e-05 2.40211e-07 0.369802 260.544 286.578 
488 0.7732 0.7732 0 3.26588e-05 3.26588e-05 -3.65051e-07 0.365956 258.417 283.329 
528 0.765 0.765 0 3.23001e-05 3.23001e-05 -1.75877e-07 0.362122 252.28 277.074 
568 0.7442 0.7442 0 3.26481e-05 3.26481e-05 -5.02327e-08 0.348865 254.325 276.538 
608 0.7122 0.7122 0 3.14284e-05 3.14284e-05 5.31704e-08 0.333812 242.996 263.662 
648 0.0036 0.0036 0 -8.92265e-08 -8.92265e-08 -3.38901e-08 0.000889884 0.364582 0.552174 
688 0.0028 0.0028 0 -8.69081e-08 -8.69081e-08 1.31031e-08 0.000866762 0.270116 0.316713 
728 0.0032 0.0032 0 -1.04336e-07 -1.04336e-07 9.68991e-09 0.00104057 0.182281 0.366182 
768 0.002 0.002 0 -4.81997e-08 -4.81997e-08 -1.01226e-08 0.000480711 0.148672 0.134909 
808 0.003 0.003 0 -1.04369e-07 -1.04369e-07 -5.67693e-09 0.0010409 0.195 0.265964 
848 0.0026 0.0026 0 -7.68769e-08 -7.68769e-08 -2.75924e-08 0.000766717 0.212436 0.417393 
888 0.005 0.005 0 -1.5364e-07 -1.5364e-07 -3.43966e-08 0.0015323 0.0949464 0.474752 
928 0.0028 0.0028 0 -7.15968e-08 -7.15968e-08 2.78937e-08 0.000714057 0.368506 0.322926 
968 0.6778 0.6778 0 3.04365e-05 3.04365e-05 -1.48628e-07 0.317979 232.513 250.817 
1008 0.7148 0.7148 0 3.15216e-05 3.15216e-05 -8.11268e-07 0.328966 246.417 268.344 
1048 0.7606 0.7606 0 3.22905e-05 3.22905e-05 8.05294e-08 0.356941 253.596 278.019 
1088 0.7504 0.7504 0 3.15878e-05 3.15878e-05 -8.24673e-08 0.346909 243.267 267.451 
1128 0.7706 0.7706 0 3.1414e-05 3.1414e-05 -4.64035e-07 0.357091 248.857 272.339 
1168 0.7852 0.7852 0 3.12041e-05 3.12041e-05 -4.16364e-07 0.363871 246.558 271.633 
1208 0.8474 0.8474 0 3.35844e-05 3.35844e-05 -2.48312e-07 0.391094 266.118 293.691 
1248 0.8666 0.8666 0 3.35446e-05 3.35446e-05 -3.63869e-07 0.406114 269.313 296.615 
9 0.0414 0.0414 0 3.15528e-06 3.15528e-06 1.66672e-07 3.03822 1820.2 1948.92 
49 6.7994 6.7994 0 0.000523166 0.000523166 -4.1024e-07 5.2177 2280.38 2508.26 
89 6.8854 6.8854 0 0.000504525 0.000504525 -7.04927e-07 5.03179 2128.97 2370.28 
129 6.998 6.998 0 0.00050301 0.00050301 5.71517e-07 5.01668 2091.54 2341.76 
169 6.9824 6.9824 0 0.00050085 0.00050085 -4.1544e-08 4.99513 2068.58 2318.18 
209 6.9812 6.9812 0 0.000501598 0.000501598 -9.43518e-07 5.0026 2112.98 2356.66 
249 6.9084 6.9084 0 0.000510363 0.000510363 -2.46891e-06 5.09001 2162.84 2395.9 
289 6.6706 6.6706 0 0.000511846 0.000511846 -1.99804e-07 5.1048 2255.31 2483.97 
329 0.0162 0.0162 0 9.0102e-07 9.0102e-07 -4.42012e-08 0.814646 627.874 652.923 
369 0.8576 0.8576 0 3.40428e-05 3.40428e-05 1.4029e-07 0.400372 267.441 296.646 
409 0.8218 0.8218 0 3.25073e-05 3.25073e-05 -3.14246e-07 0.382266 256.937 285.04 
449 0.8086 0.8086 0 3.32523e-05 3.32523e-05 -3.82685e-07 0.373874 262.464 287.706 
489 0.7748 0.7748 0 3.31546e-05 3.31546e-05 7.91169e-08 0.366161 261.359 285.314 
529 0.7394 0.7394 0 3.12266e-05 3.12266e-05 -2.70343e-07 0.343954 242.867 266.941 
569 0.7362 0.7362 0 3.19605e-05 3.19605e-05 9.58927e-08 0.342806 249.85 270.371 
609 0.7076 0.7076 0 3.20907e-05 3.20907e-05 6.99976e-07 0.332156 249.431 274.216 
649 0.0036 0.0036 0 -1.01671e-07 -1.01671e-07 -2.03093e-08 0.001014 0.0527907 0.0744185 
689 0.002 0.002 0 -4.47689e-08 -4.47689e-08 7.37213e-09 0.000446494 0.284193 0.314347 
729 0.0024 0.0024 0 -4.69571e-08 -4.69571e-08 -5.43487e-09 0.000468318 0.0857888 0.227595 
769 0.0034 0.0034 0 -1.107e-07 -1.107e-07 2.56897e-09 0.00110404 0.246389 0.350636 
809 0.0036 0.0036 0 -9.82977e-08 -9.82977e-08 -5.17382e-08 0.000980354 0.195232 0.204364 
849 0.0018 0.0018 0 -3.98021e-08 -3.98021e-08 1.70492e-08 0.000396959 0.0862869 0.177634 
889 0.0022 0.0022 0 -6.88403e-08 -6.88403e-08 1.11697e-08 0.000686566 0.219967 0.196517 
929 0.0028 0.0028 0 -9.87631e-08 -9.87631e-08 1.3796e-08 0.000984996 0.175223 0.404323 
969 0.696 0.696 0 3.16916e-05 3.16916e-05 1.56862e-07 0.326428 247.946 268.914 
1009 0.7168 0.7168 0 3.24932e-05 3.24932e-05 4.22979e-08 0.333933 250.782 272.671 
1049 0.7422 0.7422 0 3.12685e-05 3.12685e-05 1.20046e-07 0.348971 245.42 269.243 
1089 0.78 0.78 0 3.22209e-05 3.22209e-05 -1.57982e-07 0.366912 256.596 280.32 
1129 0.784 0.784 0 3.29349e-05 3.29349e-05 -9.76059e-08 0.364098 256.594 282.658 
1169 0.8044 0.8044 0 3.17594e-05 3.17594e-05 3.29895e-07 0.37857 249.482 275.24 
1209 0.8326 0.8326 0 3.34209e-05 3.34209e-05 -7.87853e-08 0.386831 258.834 288.37 
1249 0.8938 0.8938 0 3.31048e-05 3.31048e-05 1.00358e-07 0.416519 262.623 295.282 
10 0.0414 0.0414 0 3.38981e-06 3.38981e-06 -2.1454e-07 3.44407 1831.46 1959.66 
50 6.735 6.735 0 0.000511901 0.000511901 -5.21313e-07 5.10535 2216.86 2449.79 
90 6.88 6.88 0 0.000501428 0.000501428 -1.30002e-07 5.0009 2130.05 2365.17 
130 6.9774 6.9774 0 0.00049995 0.00049995 1.03943e-06 4.98616 2058.17 2301.94 
170 6.9686 6.9686 0 0.00050001 0.00050001 2.13877e-07 4.98675 2060.05 2303.94 
210 6.9446 6.9446 0 0.000501593 0.000501593 1.58473e-06 5.00254 2085.07 2331.07 
250 6.867 6.867 0 0.000504503 0.000504503 1.39913e-06 5.03157 2140.66 2381.7 
290 6.6472 6.6472 0 0.000511314 0.000511314 -8.65912e-07 5.09949 2245.6 2471.43 
330 0.015 0.015 0 7.71984e-07 7.71984e-07 4.8089e-08 0.702481 491.426 512.083 
370 0.8466 0.8466 0 3.32979e-05 3.32979e-05 -3.66883e-08 0.38923 266.05 295.849 
410 0.8154 0.8154 0 3.27065e-05 3.27065e-05 -3.31916e-07 0.379625 253.632 281.695 
450 0.7864 0.7864 0 3.22414e-05 3.22414e-05 2.32566e-07 0.373369 254.504 278.326 
490 0.7664 0.7664 0 3.16883e-05 3.16883e-05 5.61347e-08 0.354159 252.047 276.78 
530 0.7454 0.7454 0 3.19099e-05 3.19099e-05 1.75465e-07 0.347296 252.155 273.81 
570 0.7254 0.7254 0 3.18054e-05 3.18054e-05 -5.9692e-08 0.337993 243.564 267.422 
610 0.6988 0.6988 0 3.1997e-05 3.1997e-05 3.26582e-08 0.323209 250.011 271.702 
650 0.0032 0.0032 0 -8.61587e-08 -8.61587e-08 1.35413e-08 0.000859288 0.122917 0.28973 
690 0.0028 0.0028 0 -9.20046e-08 -9.20046e-08 7.14971e-09 0.000917591 0.0786784 0.179591 
730 0.0022 0.0022 0 -6.37857e-08 -6.37857e-08 -2.69153e-08 0.000636155 0.125872 0.204344 
770 0.0032 0.0032 0 -1.03487e-07 -1.03487e-07 -3.57633e-08 0.00103211 0.0427733 0.119408 
810 0.001 0.001 0 -2.78284e-08 -2.78284e-08 -1.26509e-08 0.000277541 0.0486635 0.0384645 
850 0.003 0.003 0 -8.00097e-08 -8.00097e-08 4.00151e-09 0.000797962 0.0875631 0.159405 
890 0.0012 0.0012 0 -3.0414e-08 -3.0414e-08 -1.79625e-09 0.000303329 0.0434334 0.0714999 
930 0.002 0.002 0 -7.81412e-08 -7.81412e-08 -1.36056e-08 0.000779327 -0.0476148 -0.0511046 
970 0.6814 0.6814 0 3.129e-05 3.129e-05 2.44109e-07 0.31635 240.182 260.051 
1010 0.7182 0.7182 0 3.2542e-05 3.2542e-05 3.57916e-07 0.333293 250.709 273.448 
1050 0.7262 0.7262 0 3.14763e-05 3.14763e-05 1.17431e-07 0.340994 247.527 268.728 
1090 0.7402 0.7402 0 3.21015e-05 3.21015e-05 1.6992e-07 0.346888 255.81 281.359 
1130 0.7804 0.7804 0 3.24134e-05 3.24134e-05 -1.06375e-07 0.361932 258.389 283.955 
1170 0.7908 0.7908 0 3.10738e-05 3.10738e-05 2.52687e-07 0.365173 241.271 266.094 
1210 0.8166 0.8166 0 3.22869e-05 3.22869e-05 2.16433e-07 0.382241 257.822 284.15 
1250 0.9124 0.9124 0 3.53629e-05 3.53629e-05 -4.43822e-07 0.423313 277.312 309.297 
11 0.0462 0.0462 0 3.62314e-06 3.62314e-06 -9.81811e-09 3.60362 1753.27 1920.43 
51 6.7184 6.7184 0 0.000509607 0.000509607 7.88666e-07 5.08247 2209.31 2438.24 
91 6.8862 6.8862 0 0.000504184 0.000504184 2.04319e-06 5.02838 2119.47 2362.83 
131 6.9624 6.9624 0 0.000500465 0.000500465 -1.24837e-07 4.9913 2078.59 2324.61 
171 7.0616 7.0616 0 0.000507653 0.000507653 1.00815e-06 5.06299 2108.56 2362.29 
211 6.9988 6.9988 0 0.000507319 0.000507319 -7.41729e-08 5.05966 2100.62 2342.18 
251 6.8584 6.8584 0 0.000503207 0.000503207 -3.93447e-07 5.01864 2120.47 2358.4 
291 6.6976 6.6976 0 0.000516382 0.000516382 -9.35717e-07 5.15004 2284.19 2511.74 
331 0.0084 0.0084 0 3.2245e-07 3.2245e-07 3.87007e-08 0.453957 232.191 280.893 
371 0.8152 0.8152 0 3.22779e-05 3.22779e-05 -8.30455e-08 0.380018 254.984 282.721 
411 0.8162 0.8162 0 3.33184e-05 3.33184e-05 1.75599e-07 0.37723 263.732 291.786 
451 0.775 0.775 0 3.21823e-05 3.21823e-05 4.98409e-08 0.363632 253.683 278.881 
491 0.7798 0.7798 0 3.22007e-05 3.22007e-05 2.68966e-07 0.357793 255.507 279.121 
531 0.7562 0.7562 0 3.2568e-05 3.2568e-05 1.48175e-07 0.352807 255.038 277.432 
571 0.7428 0.7428 0 3.23263e-05 3.23263e-05 -1.05034e-07 0.346712 250.406 274.365 
611 0.6972 0.6972 0 2.98684e-05 2.98684e-05 2.49552e-07 0.327331 233.74 251.878 
651 0.0034 0.0034 0 -1.26959e-07 -1.26959e-07 -9.10239e-09 0.0012662 0.353956 0.411924 
691 0.0034 0.0034 0 -8.91274e-08 -8.91274e-08 2.67231e-08 0.000888896 0.175198 0.341392 
731 0.003 0.003 0 -7.98296e-08 -7.98296e-08 -2.76691e-08 0.000796166 0.0975102 0.171392 
771 0.0024 0.0024 0 -8.61692e-08 -8.61692e-08 -5.62309e-08 0.000859393 0.0690726 0.173314 
811 0.0014 0.0014 0 -3.82293e-08 -3.82293e-08 -1.53243e-08 0.000381273 0.0542713 0.0452793 
851 0.002 0.002 0 -6.50281e-08 -6.50281e-08 3.42071e-08 0.000648546 0.14067 0.253343 
891 0.003 0.003 0 -8.97352e-08 -8.97352e-08 -5.65099e-08 0.000894958 0.182077 0.326312 
931 0.0032 0.0032 0 -8.88354e-08 -8.88354e-08 -3.69217e-09 0.000885984 0.225456 0.227751 
971 0.6954 0.6954 0 3.14171e-05 3.14171e-05 -1.00982e-07 0.325226 240.953 260.946 
1011 0.7172 0.7172 0 3.10194e-05 3.10194e-05 5.40587e-08 0.333318 242.712 265.332 
1051 0.7418 0.7418 0 3.18527e-05 3.18527e-05 -2.73018e-07 0.342626 249.574 271.612 
1091 0.7742 0.7742 0 3.32911e-05 3.32911e-05 -3.50777e-08 0.36223 257.837 284.307 
1131 0.7878 0.7878 0 3.19743e-05 3.19743e-05 3.64227e-07 0.36659 249.927 274.621 
1171 0.791 0.791 0 3.17315e-05 3.17315e-05 8.14863e-08 0.36905 250.576 277.173 
1211 0.846 0.846 0 3.31594e-05 3.31594e-05 2.77806e-07 0.388516 261.574 291.066 
1251 0.884 0.884 0 3.34492e-05 3.34492e-05 -1.88921e-07 0.413119 264.886 295.538 
12 0.0466 0.0466 0 3.81434e-06 3.81434e-06 3.23998e-08 3.74415 1936.02 2077.58 
52 6.7672 6.7672 0 0.000511993 0.000511993 6.85831e-07 5.10627 2248.1 2471.57 
92 6.9122 6.9122 0 0.000505459 0.000505459 -3.68561e-07 5.0411 2130.85 2373.01 
132 6.9482 6.9482 0 0.000501444 0.000501444 -6.13606e-07 5.00106 2080.77 2319.81 
172 6.9674 6.9674 0 0.000497665 0.000497665 -6.19068e-07 4.96337 2046.39 2291.42 
212 7.0254 7.0254 0 0.000508529 0.000508529 -8.33751e-07 5.07172 2101.66 2348.82 
252 6.8136 6.8136 0 0.000503291 0.000503291 5.40813e-07 5.01948 2138.46 2375.29 
292 6.6822 6.6822 0 0.000516922 0.000516922 -2.62949e-07 5.15543 2288.11 2512.85 
332 0.9346 0.9346 0 3.41721e-05 3.41721e-05 1.24382e-07 0.431761 268.954 300.974 
372 0.8332 0.8332 0 3.26023e-05 3.26023e-05 2.07615e-07 0.391353 258.908 286.597 