ITEM: TIMESTEP
25000
ITEM: NUMBER OF SURFS
1260
ITEM: BOX BOUNDS oo rr pp
0 0.3
0 0.3
-0.5 0.5
ITEM: SURFS id f_4[1] f_4[2] f_4[3] f_4[4] f_4[5] f_4[6] f_4[7] f_4[8] f_4[9] 
1 0.0012 0.0012 0 7.34942e-09 7.34942e-09 -4.5072e-10 0.0273071 23.7698 27.9674 
41 5.761 5.761 0 6.23752e-05 6.23752e-05 -1.3441e-08 0.621756 319.112 321.315 
81 5.7314 5.7314 0 6.15368e-05 6.15368e-05 1.31772e-07 0.613399 312.361 315.335 
121 5.7524 5.7524 0 6.13779e-05 6.13779e-05 1.92155e-08 0.611814 310.831 313.757 
161 5.7382 5.7382 0 6.12868e-05 6.12868e-05 4.3106e-09 0.610906 310.848 313.558 
201 5.741 5.741 0 6.14429e-05 6.14429e-05 -8.06164e-08 0.612463 311.905 314.469 
241 5.707 5.707 0 6.10193e-05 6.10193e-05 -5.69419e-08 0.60824 312.061 315.223 
281 5.7204 5.7204 0 6.17408e-05 6.17408e-05 -2.29426e-08 0.615432 315.731 318.419 
321 0.0078 0.0078 0 7.88122e-08 7.88122e-08 1.20358e-09 0.410219 179.947 180.433 
361 0.5322 0.5322 0 2.94386e-06 2.94386e-06 -2.14412e-08 0.0236022 24.7216 25.1258 
401 0.5072 0.5072 0 2.90997e-06 2.90997e-06 1.28555e-09 0.022104 24.493 24.8522 
441 0.506 0.506 0 2.92302e-06 2.92302e-06 1.18657e-08 0.022306 24.2685 24.7023 
481 0.497 0.497 0 2.88885e-06 2.88885e-06 7.54311e-09 0.0218186 23.9444 24.2495 
521 0.4976 0.4976 0 2.93414e-06 2.93414e-06 -4.4002e-08 0.0218792 24.5143 24.7885 
561 0.5 0.5 0 2.9493e-06 2.9493e-06 3.99492e-08 0.021886 24.7607 25.1585 
601 0.4868 0.4868 0 2.94003e-06 2.94003e-06 2.19817e-08 0.0208758 24.4997 24.7119 
641 0 0 0 0 0 0 0 0 0 
681 0.0002 0.0002 0 -3.86038e-10 -3.86038e-10 -4.7715e-10 3.84803e-06 0.00728337 0.0094463 
721 0.0002 0.0002 0 -3.45695e-10 -3.45695e-10 4.6057e-10 3.44589e-06 0.00161885 0.00213125 
761 0 0 0 0 0 0 0 0 0 
801 0.0002 0.0002 0 -5.00572e-10 -5.00572e-10 3.03182e-11 4.9897e-06 0.00057606 -0.00115853 
841 0.0002 0.0002 0 -3.4469e-10 -3.4469e-10 3.25712e-10 3.43586e-06 0.00110624 0.00252053 
881 0 0 0 0 0 0 0 0 0 
921 0 0 0 0 0 0 0 0 0 
961 0.0008 0.0008 0 6.50639e-09 6.50639e-09 5.83941e-10 0.0160749 28.9704 29.2744 
1001 0.4916 0.4916 0 2.9e-06 2.9e-06 1.07143e-08 0.0211342 24.3321 24.664 
1041 0.4916 0.4916 0 2.94679e-06 2.94679e-06 -1.71805e-09 0.0210382 24.509 24.7768 
1081 0.4862 0.4862 0 2.86601e-06 2.86601e-06 2.37111e-08 0.0211226 23.7134 24.0542 
1121 0.5056 0.5056 0 2.90697e-06 2.90697e-06 3.4532e-08 0.0219049 24.4463 24.7209 
1161 0.5092 0.5092 0 2.93551e-06 2.93551e-06 9.03996e-09 0.0222029 24.7298 25.0921 
1201 0.5206 0.5206 0 2.96274e-06 2.96274e-06 3.77562e-09 0.0226873 24.7989 25.1476 
1241 0.5302 0.5302 0 2.99346e-06 2.99346e-06 1.18461e-08 0.0234826 24.9304 25.2517 
2 0.0036 0.0036 0 2.69839e-08 2.69839e-08 -1.78804e-09 0.092309 100.474 105.674 
42 5.74 5.74 0 6.21053e-05 6.21053e-05 3.38528e-08 0.619065 314.766 317.281 
82 5.728 5.728 0 6.17013e-05 6.17013e-05 3.73329e-08 0.615039 313.323 315.998 
122 5.7042 5.7042 0 6.12457e-05 6.12457e-05 1.42574e-07 0.610497 309.42 312.452 
162 5.6868 5.6868 0 6.0937e-05 6.0937e-05 1.30973e-08 0.607419 307.451 310.509 
202 5.742 5.742 0 6.14583e-05 6.14583e-05 1.10471e-07 0.612617 314.462 317.232 
242 5.682 5.682 0 6.10115e-05 6.10115e-05 -5.1852e-08 0.608163 309.833 312.634 
282 5.6974 5.6974 0 6.14788e-05 6.14788e-05 -1.26001e-07 0.612821 315.48 318.203 
322 0.0076 0.0076 0 7.1274e-08 7.1274e-08 3.4934e-10 0.35065 184.468 194.905 
362 0.5072 0.5072 0 2.82184e-06 2.82184e-06 1.35194e-08 0.0225248 23.6076 24.0453 
402 0.5072 0.5072 0 2.8673e-06 2.8673e-06 1.4071e-08 0.0222027 23.843 24.288 
442 0.5028 0.5028 0 2.88962e-06 2.88962e-06 -3.55285e-08 0.0219519 23.9832 24.1651 
482 0.5126 0.5126 0 2.94075e-06 2.94075e-06 -2.86289e-08 0.0226513 24.3374 24.5166 
522 0.5148 0.5148 0 2.99223e-06 2.99223e-06 -1.57473e-08 0.0223906 24.7435 25.1655 
562 0.497 0.497 0 2.96485e-06 2.96485e-06 -3.81643e-08 0.021475 24.3019 24.7054 
602 0.4782 0.4782 0 2.88641e-06 2.88641e-06 -1.82736e-09 0.0205678 24.2366 24.3998 
642 0 0 0 0 0 0 0 0 0 
682 0.0002 0.0002 0 -5.48056e-10 -5.48056e-10 9.63681e-10 5.46302e-06 0.00156985 0.00161528 
722 0 0 0 0 0 0 0 0 0 
762 0 0 0 0 0 0 0 0 0 
802 0.0002 0.0002 0 -9.8376e-10 -9.8376e-10 6.78914e-10 9.80611e-06 -0.000683077 -0.00114294 
842 0.0002 0.0002 0 -8.35793e-10 -8.35793e-10 -4.30397e-10 8.33118e-06 0.000220222 -0.000127169 
882 0 0 0 0 0 0 0 0 0 
922 0.0002 0.0002 0 -2.84044e-10 -2.84044e-10 -3.54897e-10 2.83135e-06 0.0070823 0.0093923 
962 0.4986 0.4986 0 2.94324e-06 2.94324e-06 -2.72228e-08 0.0219703 24.505 24.7653 
1002 0.4926 0.4926 0 2.84188e-06 2.84188e-06 -3.49193e-09 0.0216738 23.8749 24.1257 
1042 0.4936 0.4936 0 2.92618e-06 2.92618e-06 -1.96325e-09 0.021605 24.6049 24.8939 
1082 0.4922 0.4922 0 2.87784e-06 2.87784e-06 -1.12883e-08 0.0215325 23.9214 24.2896 
1122 0.509 0.509 0 2.92295e-06 2.92295e-06 4.23532e-09 0.0220625 24.2233 24.5279 
1162 0.5138 0.5138 0 2.96319e-06 2.96319e-06 -1.7027e-08 0.0226391 24.648 25.1074 
1202 0.5274 0.5274 0 3.02319e-06 3.02319e-06 9.33723e-09 0.0230584 25.2728 25.7132 
1242 0.533 0.533 0 2.99832e-06 2.99832e-06 1.45894e-08 0.0231461 24.6654 25.0888 
3 0.0032 0.0032 0 2.45225e-08 2.45225e-08 1.32639e-09 0.0749572 88.4043 86.7716 
43 5.6858 5.6858 0 6.12253e-05 6.12253e-05 3.09832e-08 0.610293 311.508 313.822 
83 5.7022 5.7022 0 6.12421e-05 6.12421e-05 -2.36316e-08 0.610461 310.195 313.256 
123 5.7082 5.7082 0 6.11127e-05 6.11127e-05 3.22303e-08 0.609171 309.249 312.144 
163 5.669 5.669 0 6.0725e-05 6.0725e-05 4.35558e-10 0.605306 305.707 308.6 
203 5.739 5.739 0 6.16529e-05 6.16529e-05 1.59158e-07 0.614556 313.864 316.761 
243 5.7266 5.7266 0 6.13748e-05 6.13748e-05 -1.28427e-08 0.611784 314.008 316.645 
283 5.712 5.712 0 6.17124e-05 6.17124e-05 -6.73774e-08 0.615148 314.039 316.307 
323 0.0066 0.0066 0 6.43173e-08 6.43173e-08 -3.07826e-09 0.321985 166.216 168.062 
363 0.523 0.523 0 2.94105e-06 2.94105e-06 -1.18786e-08 0.0229793 24.2094 24.6327 
403 0.5034 0.5034 0 2.86381e-06 2.86381e-06 -1.84305e-08 0.0220486 23.8582 24.3209 
443 0.5026 0.5026 0 2.9486e-06 2.9486e-06 2.16951e-08 0.0220097 24.3903 24.7273 
483 0.4966 0.4966 0 2.90466e-06 2.90466e-06 -3.4642e-08 0.0219731 23.9367 24.2536 
523 0.5022 0.5022 0 3.0095e-06 3.0095e-06 -4.16477e-08 0.0215901 24.9702 25.2205 
563 0.4746 0.4746 0 2.80707e-06 2.80707e-06 -3.12444e-08 0.0208294 23.0824 23.3024 
603 0.5076 0.5076 0 3.00941e-06 3.00941e-06 1.13077e-08 0.0219376 25.044 25.2916 
643 0 0 0 0 0 0 0 0 0 
683 0.0006 0.0006 0 -1.37368e-09 -1.37368e-09 -6.30797e-10 1.36929e-05 0.00848721 0.00916758 
723 0 0 0 0 0 0 0 0 0 
763 0.0006 0.0006 0 -1.6107e-09 -1.6107e-09 -3.79906e-10 1.60554e-05 0.00196419 0.00301753 
803 0.0002 0.0002 0 -9.38664e-10 -9.38664e-10 -6.87303e-10 9.3566e-06 -0.00055369 -0.000403386 
843 0.0002 0.0002 0 -5.30006e-10 -5.30006e-10 -6.658e-10 5.2831e-06 0.00464986 0.00480589 
883 0.0004 0.0004 0 -1.59303e-09 -1.59303e-09 2.37719e-09 1.58793e-05 0.010801 0.0154434 
923 0.0004 0.0004 0 -6.91294e-10 -6.91294e-10 2.20081e-10 6.89082e-06 -6.89474e-05 0.00564727 
963 0.479 0.479 0 2.87069e-06 2.87069e-06 -3.0172e-08 0.0211366 23.8714 24.1763 
1003 0.503 0.503 0 2.99677e-06 2.99677e-06 -2.09632e-08 0.022024 25.4866 25.7204 
1043 0.4908 0.4908 0 2.86472e-06 2.86472e-06 1.84393e-08 0.0213746 23.8341 24.0442 
1083 0.4982 0.4982 0 2.84525e-06 2.84525e-06 -2.47384e-08 0.0214479 24.0872 24.2938 
1123 0.483 0.483 0 2.73959e-06 2.73959e-06 9.9599e-09 0.0211481 23.1896 23.3509 
1163 0.5134 0.5134 0 2.86881e-06 2.86881e-06 -1.89356e-08 0.0223273 23.8696 24.281 
1203 0.5132 0.5132 0 2.87101e-06 2.87101e-06 1.56812e-08 0.0223883 24.1044 24.5167 
1243 0.531 0.531 0 2.98071e-06 2.98071e-06 2.13987e-08 0.0234252 24.6406 24.9231 
4 0.0046 0.0046 0 3.86762e-08 3.86762e-08 5.79995e-10 0.148666 152.366 151.713 
44 5.778 5.778 0 6.24318e-05 6.24318e-05 3.06453e-09 0.62232 318.814 321.21 
84 5.669 5.669 0 6.08032e-05 6.08032e-05 -8.46146e-08 0.606086 307.397 310.498 
124 5.748 5.748 0 6.14388e-05 6.14388e-05 -6.65701e-08 0.612421 315.037 318.249 
164 5.7662 5.7662 0 6.15848e-05 6.15848e-05 1.11839e-07 0.613877 313.312 316.144 
204 5.7468 5.7468 0 6.15914e-05 6.15914e-05 1.17131e-07 0.613943 313.358 316.05 
244 5.7186 5.7186 0 6.14011e-05 6.14011e-05 1.21571e-07 0.612046 311.589 314.344 
284 5.709 5.709 0 6.17692e-05 6.17692e-05 -1.02052e-07 0.615715 315.918 318.349 
324 0.0084 0.0084 0 7.06207e-08 7.06207e-08 -3.67151e-09 0.314435 227.81 215.511 
364 0.5086 0.5086 0 2.8831e-06 2.8831e-06 1.15801e-08 0.0223474 24.253 24.6631 
404 0.5272 0.5272 0 3.02601e-06 3.02601e-06 1.97101e-09 0.022882 24.9177 25.2807 
444 0.5114 0.5114 0 3.00628e-06 3.00628e-06 3.39243e-09 0.0222744 24.8681 25.3225 
484 0.4906 0.4906 0 2.89659e-06 2.89659e-06 -1.5485e-08 0.0212958 24.1066 24.4693 
524 0.4986 0.4986 0 2.92176e-06 2.92176e-06 3.72597e-09 0.0222702 24.7017 25.0002 
564 0.4944 0.4944 0 2.86564e-06 2.86564e-06 3.52051e-08 0.0215001 24.0988 24.4895 
604 0.4896 0.4896 0 2.93599e-06 2.93599e-06 -1.32473e-08 0.021129 24.313 24.5318 
644 0 0 0 0 0 0 0 0 0 
684 0.0002 0.0002 0 -3.22254e-10 -3.22254e-10 -3.59323e-10 3.21223e-06 0.000980561 0.00174925 
724 0.0002 0.0002 0 -2.29364e-10 -2.29364e-10 6.08109e-10 2.28629e-06 0.00118913 -0.0013448 
764 0.0006 0.0006 0 -1.89805e-09 -1.89805e-09 2.333e-09 1.89197e-05 0.0119603 0.0158266 
804 0 0 0 0 0 0 0 0 0 
844 0 0 0 0 0 0 0 0 0 
884 0 0 0 0 0 0 0 0 0 
924 0.0002 0.0002 0 -5.91029e-10 -5.91029e-10 -1.19514e-10 5.89137e-06 -0.000272687 0.00399807 
964 0.4782 0.4782 0 2.8871e-06 2.8871e-06 -9.7869e-09 0.0208511 24.2748 24.5544 
1004 0.5076 0.5076 0 3.01782e-06 3.01782e-06 -2.35043e-09 0.0221431 25.2011 25.3417 
1044 0.5092 0.5092 0 3.03352e-06 3.03352e-06 -2.31831e-09 0.0219609 25.3281 25.5798 
1084 0.4952 0.4952 0 2.82371e-06 2.82371e-06 -6.13357e-09 0.0216962 23.3305 23.6417 
1124 0.5046 0.5046 0 2.89182e-06 2.89182e-06 -1.05984e-08 0.022142 24.0479 24.3112 
1164 0.5038 0.5038 0 2.90816e-06 2.90816e-06 1.72769e-09 0.0220266 24.3647 24.8027 
1204 0.5008 0.5008 0 2.83689e-06 2.83689e-06 -3.17723e-08 0.0215097 23.3983 23.6 
1244 0.5382 0.5382 0 3.01248e-06 3.01248e-06 -1.57554e-08 0.0233723 25.1119 25.6606 
5 0.0054 0.0054 0 3.94728e-08 3.94728e-08 -8.5853e-10 0.179803 133.502 131.003 
45 5.7252 5.7252 0 6.19519e-05 6.19519e-05 -3.47936e-08 0.617536 316.414 319.002 
85 5.7044 5.7044 0 6.11948e-05 6.11948e-05 4.50804e-08 0.60999 312.295 314.831 
125 5.6478 5.6478 0 6.06213e-05 6.06213e-05 -2.34935e-08 0.604273 305.599 308.667 
165 5.7182 5.7182 0 6.10801e-05 6.10801e-05 1.6062e-08 0.608846 310.831 313.434 
205 5.7776 5.7776 0 6.19157e-05 6.19157e-05 4.56168e-08 0.617175 313.798 317.247 
245 5.7488 5.7488 0 6.17345e-05 6.17345e-05 -3.2194e-08 0.61537 314.293 316.729 
285 5.7004 5.7004 0 6.15887e-05 6.15887e-05 5.03336e-08 0.613916 314.961 317.313 
325 0.0074 0.0074 0 6.33391e-08 6.33391e-08 2.18056e-09 0.276474 198.916 198.766 
365 0.5228 0.5228 0 2.94335e-06 2.94335e-06 -4.79429e-09 0.0228782 24.281 24.5683 
405 0.5276 0.5276 0 2.9972e-06 2.9972e-06 -1.19181e-08 0.0233621 24.7325 25.0666 
445 0.5176 0.5176 0 2.88965e-06 2.88965e-06 -2.51909e-08 0.0228272 24.1988 24.54 
485 0.5012 0.5012 0 2.89292e-06 2.89292e-06 -1.17689e-08 0.0218483 24.1969 24.551 
525 0.4952 0.4952 0 2.88958e-06 2.88958e-06 1.64429e-08 0.0219162 24.2344 24.4987 
565 0.4782 0.4782 0 2.84094e-06 2.84094e-06 -8.00062e-09 0.0210266 23.8054 24.1316 
605 0.502 0.502 0 3.04153e-06 3.04153e-06 -1.54045e-08 0.022008 25.1627 25.4369 
645 0 0 0 0 0 0 0 0 0 
685 0.0004 0.0004 0 -7.27279e-10 -7.27279e-10 -3.83287e-10 7.24951e-06 0.00248247 0.00620137 
725 0.0004 0.0004 0 -1.16705e-09 -1.16705e-09 -2.70543e-10 1.16331e-05 -0.000594315 0.00533295 
765 0.0006 0.0006 0 -1.2529e-09 -1.2529e-09 -6.94795e-11 1.24889e-05 0.000382698 0.00395012 
805 0 0 0 0 0 0 0 0 0 
845 0 0 0 0 0 0 0 0 0 
885 0.0002 0.0002 0 -4.19556e-10 -4.19556e-10 -3.19593e-10 4.18213e-06 -0.00188408 -0.0030677 
925 0 0 0 0 0 0 0 0 0 
965 0.4818 0.4818 0 2.87317e-06 2.87317e-06 -8.0955e-09 0.0210315 24.2062 24.5122 
1005 0.4918 0.4918 0 2.8353e-06 2.8353e-06 4.99635e-09 0.0215454 23.762 24.1129 
1045 0.4942 0.4942 0 2.93732e-06 2.93732e-06 1.68133e-08 0.0216412 24.4049 24.6524 
1085 0.4726 0.4726 0 2.80084e-06 2.80084e-06 -2.544e-08 0.0203865 23.6996 24.0228 
1125 0.5206 0.5206 0 3.04825e-06 3.04825e-06 -1.78068e-09 0.0225919 25.3924 25.6319 
1165 0.5292 0.5292 0 3.06618e-06 3.06618e-06 -4.3855e-09 0.0233619 25.657 26.1453 
1205 0.5052 0.5052 0 2.87335e-06 2.87335e-06 3.71579e-08 0.0218515 23.9114 24.2406 
1245 0.5334 0.5334 0 3.00211e-06 3.00211e-06 -2.69079e-08 0.0235981 25.0919 25.5862 
6 0.0062 0.0062 0 5.76615e-08 5.76615e-08 -6.76746e-10 0.218704 217.613 220.022 
46 5.714 5.714 0 6.17236e-05 6.17236e-05 1.56669e-07 0.615261 316.231 318.972 
86 5.6944 5.6944 0 6.10698e-05 6.10698e-05 -9.57117e-08 0.608743 311.603 314.446 
126 5.732 5.732 0 6.14214e-05 6.14214e-05 2.8836e-08 0.612249 312.985 315.774 
166 5.7446 5.7446 0 6.14143e-05 6.14143e-05 9.81599e-08 0.612177 310.432 313.393 
206 5.7864 5.7864 0 6.17623e-05 6.17623e-05 1.19407e-07 0.615647 315.299 318.646 
246 5.7138 5.7138 0 6.14436e-05 6.14436e-05 -1.52309e-08 0.61247 312.748 315.026 
286 5.711 5.711 0 6.15945e-05 6.15945e-05 -6.58951e-08 0.613973 314.785 317.472 
326 0.0054 0.0054 0 4.11675e-08 4.11675e-08 1.27303e-09 0.184375 148.89 156.522 
366 0.5086 0.5086 0 2.84759e-06 2.84759e-06 -1.5886e-08 0.0227342 23.7995 24.161 
406 0.511 0.511 0 2.93502e-06 2.93502e-06 1.10043e-08 0.0227068 24.4271 24.8346 
446 0.4948 0.4948 0 2.85241e-06 2.85241e-06 -2.88012e-08 0.0213812 23.4574 23.8009 
486 0.491 0.491 0 2.85349e-06 2.85349e-06 -1.19831e-08 0.0212861 23.8452 24.28 
526 0.4862 0.4862 0 2.84331e-06 2.84331e-06 -3.84401e-09 0.0212007 23.7594 24.0222 
566 0.4874 0.4874 0 2.9076e-06 2.9076e-06 1.05407e-08 0.0211265 24.261 24.662 
606 0.4936 0.4936 0 2.86954e-06 2.86954e-06 -6.1559e-08 0.0211295 23.9908 24.2538 
646 0 0 0 0 0 0 0 0 0 
686 0.0004 0.0004 0 -1.00249e-09 -1.00249e-09 8.66664e-10 9.99279e-06 0.00504543 0.0087185 
726 0 0 0 0 0 0 0 0 0 
766 0.0002 0.0002 0 -2.1799e-10 -2.1799e-10 0 2.17292e-06 0 0 
806 0 0 0 0 0 0 0 0 0 
846 0.0002 0.0002 0 -7.27021e-10 -7.27021e-10 -1.30394e-09 7.24695e-06 0.00511879 0.00644533 
886 0.0006 0.0006 0 -1.28498e-09 -1.28498e-09 -1.40608e-10 1.28087e-05 0.0061981 0.00543359 
926 0.0002 0.0002 0 -5.70764e-10 -5.70764e-10 0 5.68938e-06 0 0 
966 0.4838 0.4838 0 2.84104e-06 2.84104e-06 -1.78266e-10 0.0211523 23.3953 23.5886 
1006 0.4916 0.4916 0 2.9265e-06 2.9265e-06 3.62915e-08 0.0213669 24.2052 24.5104 
1046 0.4956 0.4956 0 2.94629e-06 2.94629e-06 1.1546e-08 0.0218584 24.4177 24.6684 
1086 0.4888 0.4888 0 2.84289e-06 2.84289e-06 2.06288e-09 0.0214813 23.9378 24.165 
1126 0.5154 0.5154 0 2.93744e-06 2.93744e-06 -1.7025e-08 0.0226338 24.6709 25.0012 
1166 0.5006 0.5006 0 2.89242e-06 2.89242e-06 -3.24921e-08 0.0221537 24.1041 24.3523 
1206 0.4962 0.4962 0 2.78284e-06 2.78284e-06 1.39989e-08 0.0219743 23.1154 23.6614 
1246 0.5304 0.5304 0 2.9241e-06 2.9241e-06 -1.04112e-08 0.0228337 24.3375 24.8783 
7 0.0066 0.0066 0 6.05188e-08 6.05188e-08 -4.96025e-09 0.275298 202.015 203.652 
47 5.756 5.756 0 6.22931e-05 6.22931e-05 4.9167e-08 0.620938 317.898 320.168 
87 5.7694 5.7694 0 6.1941e-05 6.1941e-05 -1.68653e-07 0.617427 313.308 316.484 
127 5.6952 5.6952 0 6.08714e-05 6.08714e-05 3.08888e-08 0.606766 309.502 312.513 
167 5.7372 5.7372 0 6.13958e-05 6.13958e-05 -9.83672e-09 0.611993 308.883 311.892 
207 5.6854 5.6854 0 6.09941e-05 6.09941e-05 1.54257e-08 0.607989 308.613 311.23 
247 5.7112 5.7112 0 6.12718e-05 6.12718e-05 8.68542e-08 0.610757 312.189 315.164 
287 5.809 5.809 0 6.28548e-05 6.28548e-05 -2.37792e-08 0.626536 318.633 321.204 
327 0.0048 0.0048 0 3.78279e-08 3.78279e-08 2.27546e-09 0.160543 141.054 138.158 
367 0.535 0.535 0 3.01424e-06 3.01424e-06 -3.58319e-08 0.0235993 25.1926 25.6349 
407 0.5316 0.5316 0 3.06589e-06 3.06589e-06 3.30732e-09 0.0232497 25.2657 25.6642 
447 0.4988 0.4988 0 2.93082e-06 2.93082e-06 2.355e-08 0.021637 24.4031 24.7612 
487 0.4916 0.4916 0 2.88079e-06 2.88079e-06 9.52997e-09 0.0214308 23.8756 24.2494 
527 0.5008 0.5008 0 3.00098e-06 3.00098e-06 4.30486e-08 0.0216525 25.1026 25.3339 
567 0.4992 0.4992 0 3.01675e-06 3.01675e-06 4.27916e-10 0.021695 24.8501 25.1227 
607 0.4922 0.4922 0 2.92621e-06 2.92621e-06 1.19764e-08 0.0213413 24.5122 24.7571 
647 0 0 0 0 0 0 0 0 0 
687 0.0006 0.0006 0 -1.04121e-09 -1.04121e-09 -3.3881e-09 1.03788e-05 0.0182438 0.019448 
727 0.0002 0.0002 0 -6.90947e-10 -6.90947e-10 2.92363e-11 6.88736e-06 0.00307702 0.00307766 
767 0 0 0 0 0 0 0 0 0 
807 0.0002 0.0002 0 -3.69853e-10 -3.69853e-10 -1.02378e-10 3.68669e-06 0.000139248 -0.000520011 
847 0 0 0 0 0 0 0 0 0 
887 0.0004 0.0004 0 -7.3741e-10 -7.3741e-10 9.35135e-10 7.3505e-06 0.00457304 0.0131731 
927 0.0002 0.0002 0 -4.48458e-10 -4.48458e-10 5.75498e-11 4.47022e-06 0.000436568 0.00306252 
967 0.4744 0.4744 0 2.83778e-06 2.83778e-06 -1.53859e-08 0.0206311 23.6424 24.1851 
1007 0.4818 0.4818 0 2.8827e-06 2.8827e-06 -1.0758e-08 0.0209088 24.1458 24.5011 
1047 0.5208 0.5208 0 3.02405e-06 3.02405e-06 -1.23322e-08 0.02262 24.8358 25.1798 
1087 0.4922 0.4922 0 2.8661e-06 2.8661e-06 1.0214e-08 0.0213284 23.5191 23.8431 
1127 0.5002 0.5002 0 2.91729e-06 2.91729e-06 2.50729e-08 0.0217055 24.4358 24.7191 
1167 0.4998 0.4998 0 2.91202e-06 2.91202e-06 -2.25069e-08 0.0219985 24.1308 24.574 
1207 0.5146 0.5146 0 2.92389e-06 2.92389e-06 5.6921e-09 0.022326 24.6701 25.1624 
1247 0.5354 0.5354 0 3.01932e-06 3.01932e-06 -5.71317e-09 0.023493 25.1174 25.6337 
8 0.006 0.006 0 5.13473e-08 5.13473e-08 1.50198e-09 0.270363 126.098 128.769 
48 5.748 5.748 0 6.19856e-05 6.19856e-05 4.41492e-08 0.617872 316.184 318.524 
88 5.658 5.658 0 6.08572e-05 6.08572e-05 2.24518e-08 0.606624 309.645 312.081 
128 5.7396 5.7396 0 6.13033e-05 6.13033e-05 1.58454e-08 0.611071 312.354 315.661 
168 5.6984 5.6984 0 6.09936e-05 6.09936e-05 -3.81547e-08 0.607984 308.391 311.746 
208 5.686 5.686 0 6.09694e-05 6.09694e-05 1.50344e-09 0.607743 309.712 312.65 
248 5.7162 5.7162 0 6.1466e-05 6.1466e-05 -1.86149e-08 0.612693 312.693 315.204 
288 5.7426 5.7426 0 6.19941e-05 6.19941e-05 2.99291e-08 0.617957 318.468 320.589 
328 0.0042 0.0042 0 3.72381e-08 3.72381e-08 3.14069e-09 0.124084 139.367 136.089 
368 0.513 0.513 0 2.91629e-06 2.91629e-06 -1.05797e-08 0.0224238 24.1864 24.5912 
408 0.515 0.515 0 3.03185e-06 3.03185e-06 1.10362e-08 0.0220681 25.2947 25.659 
448 0.5038 0.5038 0 2.93003e-06 2.93003e-06 2.15132e-09 0.0220544 24.3186 24.6578 
488 0.4944 0.4944 0 2.81581e-06 2.81581e-06 2.25977e-08 0.0220284 23.7759 24.1534 
528 0.4944 0.4944 0 2.91077e-06 2.91077e-06 -3.1534e-10 0.0215519 24.5487 24.8324 
568 0.508 0.508 0 3.01916e-06 3.01916e-06 -3.01571e-08 0.0223855 24.9376 25.2302 
608 0.496 0.496 0 2.93749e-06 2.93749e-06 2.90237e-08 0.0215167 24.2522 24.5677 
648 0.0002 0.0002 0 -6.0333e-10 -6.0333e-10 -7.4332e-10 6.01399e-06 0.00956315 0.00950817 
688 0.0002 0.0002 0 -4.8446e-10 -4.8446e-10 -5.53266e-11 4.8291e-06 0.00233522 0.00185568 
728 0 0 0 0 0 0 0 0 0 
768 0.0002 0.0002 0 -9.24019e-10 -9.24019e-10 -1.06661e-10 9.21062e-06 0.00282799 0.00228214 
808 0 0 0 0 0 0 0 0 0 
848 0 0 0 0 0 0 0 0 0 
888 0 0 0 0 0 0 0 0 0 
928 0 0 0 0 0 0 0 0 0 
968 0.4692 0.4692 0 2.87055e-06 2.87055e-06 -1.05377e-08 0.0198216 24.1624 24.4423 
1008 0.503 0.503 0 3.00439e-06 3.00439e-06 2.60733e-08 0.0214452 24.7267 25.0208 
1048 0.5028 0.5028 0 2.98597e-06 2.98597e-06 -1.2002e-08 0.0220277 25.0928 25.3879 
1088 0.5002 0.5002 0 2.95986e-06 2.95986e-06 -3.77787e-09 0.0217151 24.5617 24.9668 
1128 0.4968 0.4968 0 2.9012e-06 2.9012e-06 4.96858e-08 0.0216596 24.2238 24.4861 
1168 0.5128 0.5128 0 2.92859e-06 2.92859e-06 -1.5471e-08 0.0224562 24.4852 24.7407 
1208 0.5232 0.5232 0 2.97629e-06 2.97629e-06 2.378e-10 0.0225153 24.5307 24.9949 
1248 0.5382 0.5382 0 3.00635e-06 3.00635e-06 -4.26965e-09 0.0233238 25.0734 25.436 
9 0.0094 0.0094 0 9.36332e-08 9.36332e-08 2.99264e-09 0.446517 269.579 273.283 
49 5.6732 5.6732 0 6.12736e-05 6.12736e-05 4.01766e-09 0.610775 315.186 317.026 
89 5.7156 5.7156 0 6.12282e-05 6.12282e-05 -5.55251e-08 0.610322 312.007 315.169 
129 5.7896 5.7896 0 6.19696e-05 6.19696e-05 7.57339e-08 0.617712 313.719 316.64 
169 5.7156 5.7156 0 6.11883e-05 6.11883e-05 1.36181e-08 0.609925 312.411 315.171 
209 5.7176 5.7176 0 6.13669e-05 6.13669e-05 -1.29067e-07 0.611705 309.196 312.331 
249 5.7288 5.7288 0 6.14986e-05 6.14986e-05 -1.29885e-07 0.613018 314.285 316.95 
289 5.7296 5.7296 0 6.19174e-05 6.19174e-05 1.62712e-07 0.617193 315.817 318.522 
329 0.0032 0.0032 0 2.69686e-08 2.69686e-08 -1.38121e-09 0.0872074 94.0968 99.5567 
369 0.5214 0.5214 0 2.912e-06 2.912e-06 4.73291e-09 0.0228531 24.3862 24.738 
409 0.5236 0.5236 0 3.00836e-06 3.00836e-06 -5.18098e-09 0.0227373 25.0811 25.47 
449 0.5198 0.5198 0 2.984e-06 2.984e-06 -3.32764e-08 0.0226439 24.7492 25.0658 
489 0.5044 0.5044 0 2.88777e-06 2.88777e-06 -5.08436e-09 0.0220295 24.0326 24.2891 
529 0.4972 0.4972 0 2.97664e-06 2.97664e-06 -1.12642e-08 0.0213656 24.8944 25.2543 
569 0.5096 0.5096 0 3.03726e-06 3.03726e-06 -6.50538e-09 0.0218487 25.5112 25.8073 
609 0.4772 0.4772 0 2.79778e-06 2.79778e-06 -1.37013e-08 0.0209618 23.2885 23.5125 
649 0.0004 0.0004 0 -1.5063e-09 -1.5063e-09 1.45921e-10 1.50148e-05 0.00835475 0.00848188 
689 0 0 0 0 0 0 0 0 0 
729 0.0004 0.0004 0 -1.13345e-09 -1.13345e-09 1.23655e-10 1.12982e-05 0.00219875 0.00190457 
769 0.0002 0.0002 0 -7.63165e-10 -7.63165e-10 -3.89812e-10 7.60723e-06 -0.0018387 -0.000723676 
809 0.0002 0.0002 0 -3.75586e-10 -3.75586e-10 0 3.74384e-06 0 0 
849 0.0004 0.0004 0 -8.43275e-10 -8.43275e-10 3.76737e-10 8.40576e-06 -0.000879257 -0.002719 
889 0 0 0 0 0 0 0 0 0 
929 0.0002 0.0002 0 -4.5363e-10 -4.5363e-10 8.53391e-10 4.52178e-06 0.00548178 0.00488319 
969 0.4964 0.4964 0 2.91561e-06 2.91561e-06 -3.61764e-09 0.0215881 24.4627 24.8011 
1009 0.4914 0.4914 0 2.87614e-06 2.87614e-06 3.76739e-08 0.0213103 23.928 24.4301 
1049 0.5004 0.5004 0 2.93259e-06 2.93259e-06 -3.98925e-08 0.0217789 24.3224 24.6152 
1089 0.497 0.497 0 2.89694e-06 2.89694e-06 3.06509e-08 0.0217967 24.1114 24.4578 
1129 0.4912 0.4912 0 2.79639e-06 2.79639e-06 -1.85851e-08 0.0216087 23.3859 23.7699 
1169 0.5018 0.5018 0 2.86539e-06 2.86539e-06 5.0046e-08 0.021776 23.8638 24.2833 
1209 0.4854 0.4854 0 2.7072e-06 2.7072e-06 -1.43408e-10 0.0209702 22.5073 22.8628 
1249 0.5226 0.5226 0 2.93792e-06 2.93792e-06 1.74822e-08 0.0229453 24.1011 24.5716 
10 0.007 0.007 0 6.93456e-08 6.93456e-08 6.44164e-10 0.32916 194.115 191.986 
50 5.7678 5.7678 0 6.24961e-05 6.24961e-05 9.07076e-08 0.622961 318.565 321.256 
90 5.7252 5.7252 0 6.14124e-05 6.14124e-05 -6.59299e-08 0.612159 313.454 316.356 
130 5.7172 5.7172 0 6.13029e-05 6.13029e-05 -2.73245e-08 0.611067 312.599 315.61 
170 5.6564 5.6564 0 6.02669e-05 6.02669e-05 -2.96531e-08 0.60074 307.119 310.313 
210 5.6882 5.6882 0 6.09975e-05 6.09975e-05 1.00535e-07 0.608022 310.771 313.505 
250 5.7398 5.7398 0 6.16747e-05 6.16747e-05 -8.20146e-08 0.614773 311.775 314.697 
290 5.6916 5.6916 0 6.15581e-05 6.15581e-05 1.10301e-07 0.613611 313.745 316.582 
330 0.002 0.002 0 1.28454e-08 1.28454e-08 -9.51941e-10 0.0601518 53.2665 57.4431 
370 0.508 0.508 0 2.84532e-06 2.84532e-06 1.47803e-08 0.0220744 23.6942 24.0107 
410 0.4888 0.4888 0 2.85391e-06 2.85391e-06 1.49627e-09 0.0211902 23.9253 24.253 
450 0.5018 0.5018 0 2.95687e-06 2.95687e-06 8.19781e-09 0.0216282 24.4093 24.69 
490 0.493 0.493 0 2.93767e-06 2.93767e-06 2.45558e-08 0.0211511 24.2041 24.5683 
530 0.51 0.51 0 3.00697e-06 3.00697e-06 -4.29533e-08 0.0223193 25.1365 25.2745 
570 0.4856 0.4856 0 2.80916e-06 2.80916e-06 1.7448e-08 0.021423 23.5501 23.9633 
610 0.4562 0.4562 0 2.71062e-06 2.71062e-06 2.09068e-08 0.019616 22.5071 22.8587 
650 0 0 0 0 0 0 0 0 0 
690 0.0002 0.0002 0 -5.63203e-10 -5.63203e-10 4.95512e-10 5.61401e-06 0.000975991 0.000613502 
730 0.0002 0.0002 0 -3.72208e-10 -3.72208e-10 -2.24915e-10 3.71016e-06 0.00268238 0.00155001 
770 0.0008 0.0008 0 -2.13931e-09 -2.13931e-09 -6.0832e-11 2.13246e-05 0.000904862 0.00776631 
810 0 0 0 0 0 0 0 0 0 
850 0 0 0 0 0 0 0 0 0 
890 0 0 0 0 0 0 0 0 0 
930 0 0 0 0 0 0 0 0 0 
970 0.4908 0.4908 0 2.92129e-06 2.92129e-06 -1.62714e-08 0.0214027 24.5181 24.8615 
1010 0.4874 0.4874 0 2.93678e-06 2.93678e-06 -8.8801e-09 0.0208641 24.2185 24.4314 
1050 0.505 0.505 0 2.90741e-06 2.90741e-06 5.65532e-09 0.0223716 24.564 24.9503 
1090 0.4854 0.4854 0 2.85419e-06 2.85419e-06 1.2637e-08 0.0208944 23.5954 23.911 
1130 0.5144 0.5144 0 2.92941e-06 2.92941e-06 -3.59809e-08 0.0225891 24.6239 24.8618 
1170 0.5002 0.5002 0 2.86806e-06 2.86806e-06 -3.54036e-09 0.02168 23.9042 24.2941 
1210 0.5108 0.5108 0 2.90096e-06 2.90096e-06 -1.73471e-09 0.0223581 23.9172 24.2853 
1250 0.5276 0.5276 0 3.01527e-06 3.01527e-06 -4.98417e-08 0.0231167 25.1471 25.5375 
11 0.01 0.01 0 9.81845e-08 9.81845e-08 -5.71963e-09 0.453116 325.871 326.121 
51 5.7056 5.7056 0 6.16455e-05 6.16455e-05 7.5182e-08 0.614482 312.341 314.525 
91 5.7384 5.7384 0 6.16549e-05 6.16549e-05 -1.66217e-07 0.614576 314.872 317.962 
131 5.7122 5.7122 0 6.1163e-05 6.1163e-05 8.017e-08 0.609672 308.599 311.648 
171 5.7392 5.7392 0 6.12686e-05 6.12686e-05 8.13802e-08 0.610725 311.623 314.544 
211 5.7404 5.7404 0 6.14372e-05 6.14372e-05 5.99786e-08 0.612406 313.045 316.493 
251 5.7224 5.7224 0 6.1526e-05 6.1526e-05 -5.46768e-08 0.613291 312.139 314.856 
291 5.6834 5.6834 0 6.17098e-05 6.17098e-05 -8.31243e-08 0.615123 312.5 314.681 
331 0.0022 0.0022 0 1.54634e-08 1.54634e-08 -2.22587e-10 0.0536297 62.6087 62.7079 
371 0.527 0.527 0 3.00852e-06 3.00852e-06 9.61525e-09 0.0230993 25.4004 25.9122 
411 0.5026 0.5026 0 2.85517e-06 2.85517e-06 -2.3704e-08 0.0221163 23.8586 24.1569 
451 0.4994 0.4994 0 2.86984e-06 2.86984e-06 1.06442e-08 0.0218794 24.0206 24.3888 
491 0.4994 0.4994 0 2.90778e-06 2.90778e-06 -1.9412e-08 0.0218787 24.2961 24.634 
531 0.4884 0.4884 0 2.85384e-06 2.85384e-06 3.37807e-09 0.0211635 23.842 24.1558 
571 0.4988 0.4988 0 2.9204e-06 2.9204e-06 2.47593e-08 0.0216171 24.2475 24.6203 
611 0.4842 0.4842 0 2.88194e-06 2.88194e-06 3.89899e-08 0.0211383 23.9653 24.3464 
651 0.0002 0.0002 0 -4.6969e-10 -4.6969e-10 5.57493e-10 4.68187e-06 0.00173005 0.00177121 
691 0.0004 0.0004 0 -1.29667e-09 -1.29667e-09 9.75597e-10 1.29252e-05 0.00825856 0.00590484 
731 0 0 0 0 0 0 0 0 0 
771 0.0002 0.0002 0 -5.56477e-10 -5.56477e-10 -3.08953e-10 5.54696e-06 0.00147307 -9.75475e-05 
811 0 0 0 0 0 0 0 0 0 
851 0 0 0 0 0 0 0 0 0 
891 0.0002 0.0002 0 -6.98399e-10 -6.98399e-10 1.42309e-09 6.96163e-06 0.0146492 0.0183355 
931 0.0004 0.0004 0 -1.80195e-09 -1.80195e-09 2.02783e-09 1.79619e-05 0.00455361 0.000172481 
971 0.4944 0.4944 0 2.93097e-06 2.93097e-06 2.61193e-08 0.0214604 24.3136 24.5494 
1011 0.4858 0.4858 0 2.88191e-06 2.88191e-06 -4.14404e-08 0.0210724 23.9304 24.085 
1051 0.4994 0.4994 0 2.90984e-06 2.90984e-06 8.97781e-09 0.0218066 24.4176 24.8434 
1091 0.5042 0.5042 0 2.91805e-06 2.91805e-06 2.64201e-08 0.021897 24.2168 24.5794 
1131 0.502 0.502 0 2.95992e-06 2.95992e-06 1.00347e-08 0.0216357 24.1582 24.5247 
1171 0.5136 0.5136 0 2.91457e-06 2.91457e-06 -1.73862e-08 0.0222388 24.1406 24.6175 
1211 0.527 0.527 0 3.0311e-06 3.0311e-06 1.1252e-08 0.0231005 25.2063 25.6095 
1251 0.5342 0.5342 0 2.97208e-06 2.97208e-06 3.56088e-08 0.0235731 24.9656 25.3957 
12 0.0112 0.0112 0 1.12791e-07 1.12791e-07 -4.89369e-10 0.549944 330.759 342.928 
52 5.7494 5.7494 0 6.21446e-05 6.21446e-05 7.2331e-08 0.619457 318.023 320.912 
92 5.735 5.735 0 6.16006e-05 6.16006e-05 9.85498e-08 0.614035 313.074 316.187 
132 5.767 5.767 0 6.17603e-05 6.17603e-05 -9.79396e-09 0.615627 314.53 317.23 
172 5.6796 5.6796 0 6.08444e-05 6.08444e-05 -7.33914e-08 0.606497 306.636 309.608 
212 5.7174 5.7174 0 6.09546e-05 6.09546e-05 -3.58924e-08 0.607595 311.88 314.686 
252 5.6504 5.6504 0 6.05105e-05 6.05105e-05 3.63448e-08 0.603168 310.835 313.985 
292 5.74 5.74 0 6.21808e-05 6.21808e-05 -1.76947e-08 0.619818 316.771 319.391 
332 0.5522 0.5522 0 3.1199e-06 3.1199e-06 -4.93089e-08 0.0240199 25.9782 26.5608 
372 0.5286 0.5286 0 2.89632e-06 2.89632e-06 2.0774e-09 0.0237728 24.5971 25.0808 
412 0.4968 0.4968 0 2.85883e-06 2.85883e-06 1.48172e-08 0.0217204 23.8939 24.2725 
452 0.5134 0.5134 0 3.00917e-06 3.00917e-06 -2.03152e-08 0.0225371 24.8531 25.2091 
492 0.5122 0.5122 0 2.91993e-06 2.91993e-06 -7.12637e-09 0.022287 24.3972 24.8505 
532 0.5094 0.5094 0 2.98524e-06 2.98524e-06 -1.48801e-08 0.0220923 24.8594 25.1636 
572 0.4782 0.4782 0 2.85145e-06 2.85145e-06 1.09749e-08 0.0208118 23.6401 23.9057 
612 0.4852 0.4852 0 2.89423e-06 2.89423e-06 1.20395e-08 0.0211998 23.8966 24.2388 
652 0.0002 0.0002 0 -6.60632e-10 -6.60632e-10 -6.13608e-10 6.58518e-06 0.00668325 0.00711706 
692 0.0002 0.0002 0 -5.366e-10 -5.366e-10 1.08432e-09 5.34883e-06 -0.00153814 0.00129208 
732 0.0004 0.0004 0 -1.23248e-09 -1.23248e-09 -2.09612e-09 1.22853e-05 0.00421457 0.00545491 
772 0.0004 0.0004 0 -9.88127e-10 -9.88127e-10 3.86402e-10 9.84964e-06 0.0137637 0.0134537 
812 0.0002 0.0002 0 -1.02954e-09 -1.02954e-09 0 1.02625e-05 0 0 
852 0 0 0 0 0 0 0 0 0 
892 0 0 0 0 0 0 0 0 0 
932 0.0002 0.0002 0 -9.71149e-11 -9.71149e-11 7.13622e-10 9.68041e-07 0.00169849 0.00271221 
972 0.5034 0.5034 0 2.98503e-06 2.98503e-06 -3.93955e-08 0.021669 24.9864 25.2878 
1012 0.4946 0.4946 0 2.91682e-06 2.91682e-06 1.85564e-08 0.0217053 24.5023 24.8363 
1052 0.5116 0.5116 0 3.07054e-06 3.07054e-06 4.45698e-08 0.0221387 25.6748 26.1024 
1092 0.5058 0.5058 0 2.9516e-06 2.9516e-06 -2.36063e-08 0.0220416 24.5325 24.8544 
1132 0.4978 0.4978 0 2.8259e-06 2.8259e-06 -3.97368e-08 0.0217765 23.5916 24.0101 
1172 0.5092 0.5092 0 2.90642e-06 2.90642e-06 -5.27949e-09 0.0219895 24.4596 24.7839 
1212 0.5272 0.5272 0 2.98469e-06 2.98469e-06 -1.33917e-08 0.0232327 25.1722 25.6556 
1252 0.5388 0.5388 0 2.95568e-06 2.95568e-06 1.45137e-08 0.023344 24.3784 24.7811 
13 0.0116 0.0116 0 1.22267e-07 1.22267e-07 5.13789e-11 0.605437 312.999 317.854 
53 5.717 5.717 0 6.16617e-05 6.16617e-05 -1.7769e-07 0.614643 312.919 315.222 