ITEM: TIMESTEP
25000
ITEM: NUMBER OF SURFS
1260
ITEM: BOX BOUNDS oo rr pp
0 0.3
0 0.3
-0.5 0.5
ITEM: SURFS id f_4[1] f_4[2] f_4[3] f_4[4] f_4[5] f_4[6] f_4[7] f_4[8] f_4[9] 
1 0.0012 0.0012 0 2.63263e-06 2.63263e-06 2.6493e-06 45.3799 3786.15 2071.04 
41 9.278 9.278 0 0.0771664 0.0771664 -0.000112458 769.195 50094.7 68040.9 
81 10.2966 10.2966 0 0.0843255 0.0843255 -2.42947e-05 840.556 42715.4 59312.5 
121 10.7064 10.7064 0 0.0876712 0.0876712 0.000132264 873.906 41718.2 57783.5 
161 10.9404 10.9404 0 0.0891042 0.0891042 0.000185181 888.19 41809.7 57851.6 
201 10.849 10.849 0 0.0882109 0.0882109 -6.13973e-05 879.286 42468.9 58910.8 
241 10.4682 10.4682 0 0.0858532 0.0858532 -0.000216742 855.784 45102.7 61847.5 
281 9.7082 9.7082 0 0.0801427 0.0801427 -0.00011809 798.862 48042.5 65056.9 
321 0.0074 0.0074 0 5.57812e-05 5.57812e-05 -5.05592e-06 272.308 46833.9 63413.9 
361 0.5176 0.5176 0 0.00113926 0.00113926 -8.61903e-06 44.0053 5725.84 7310.42 
401 0.664 0.664 0 0.000990287 0.000990287 1.66113e-05 57.0076 5855.39 7711.72 
441 0.757 0.757 0 0.000855327 0.000855327 -5.86256e-05 65.1046 5733.11 7900.41 
481 0.8206 0.8206 0 0.000872829 0.000872829 4.20989e-05 69.4347 6095.57 8331.14 
521 0.8828 0.8828 0 0.000849742 0.000849742 1.81367e-05 74.3678 5929.74 8196.69 
561 0.8956 0.8956 0 0.000832423 0.000832423 -4.66154e-05 75.2915 5944.08 8371.74 
601 0.8684 0.8684 0 0.00103984 0.00103984 -7.66589e-05 73.4203 6555.23 8646.35 
641 0.0002 0.0002 0 -8.90878e-07 -8.90878e-07 -1.25325e-07 6.13378 -17.792 -102.856 
681 0.1696 0.1696 0 -0.00136278 -0.00136278 1.22476e-05 13.5842 635.746 993.043 
721 0.2106 0.2106 0 -0.00172399 -0.00172399 -8.32182e-05 17.1847 1036.74 1420.09 
761 0.229 0.229 0 -0.00187842 -0.00187842 -6.5606e-06 18.7241 1236.62 1738.25 
801 0.2346 0.2346 0 -0.00196073 -0.00196073 -4.55445e-06 19.5445 1171.17 1701.99 
841 0.2226 0.2226 0 -0.00182328 -0.00182328 -5.62232e-05 18.1745 864.162 1371.23 
881 0.198 0.198 0 -0.00159177 -0.00159177 2.20377e-05 15.8667 638.303 951.646 
921 0.131 0.131 0 -0.00103798 -0.00103798 7.19912e-06 10.3466 473.156 807.516 
961 0.0012 0.0012 0 7.05934e-06 7.05934e-06 1.77064e-06 51.4216 11938.7 15657.5 
1001 0.8668 0.8668 0 0.000770373 0.000770373 2.03775e-05 71.3624 5891.44 8342.82 
1041 0.895 0.895 0 0.000735866 0.000735866 0.00013403 75.889 6227.51 8480.54 
1081 0.8806 0.8806 0 0.000877433 0.000877433 6.39304e-05 73.9922 6668.82 9317.32 
1121 0.8216 0.8216 0 0.000952863 0.000952863 3.01657e-05 69.9312 6110.27 8876.83 
1161 0.7434 0.7434 0 0.000868365 0.000868365 4.08308e-05 63.0248 5666.47 8076.95 
1201 0.6436 0.6436 0 0.00103337 0.00103337 -3.99846e-05 55.6846 5578.28 7694.31 
1241 0.5038 0.5038 0 0.00121668 0.00121668 1.2718e-05 42.2779 5593.95 7111.35 
2 0.0014 0.0014 0 1.48677e-06 1.48677e-06 -2.35116e-07 57.2337 1755.78 8364.64 
42 9.3776 9.3776 0 0.0779046 0.0779046 -0.000261012 776.553 49489.5 67744.7 
82 10.4206 10.4206 0 0.0853787 0.0853787 -3.58258e-05 851.054 44864.2 61914.8 
122 10.7882 10.7882 0 0.0879127 0.0879127 -9.94091e-05 876.313 42007.8 57873.9 
162 10.836 10.836 0 0.0881689 0.0881689 -4.61719e-05 878.867 41579.5 56681.4 
202 10.771 10.771 0 0.0877202 0.0877202 4.32066e-05 874.395 41921.3 57787.5 
242 10.4786 10.4786 0 0.085582 0.085582 -0.000409771 853.081 44437.1 61707.9 
282 9.694 9.694 0 0.0800224 0.0800224 0.000160355 797.663 47151.7 66046.2 
322 0.005 0.005 0 3.85163e-05 3.85163e-05 -3.01874e-06 216.661 22710.5 30408.7 
362 0.5358 0.5358 0 0.00126437 0.00126437 -5.16039e-05 45.2091 6078.91 7766.56 
402 0.6848 0.6848 0 0.00102234 0.00102234 -8.77906e-06 58.7973 5891.86 8031.56 
442 0.7442 0.7442 0 0.000970064 0.000970064 1.6813e-05 63.0451 6038.87 7883.74 
482 0.7992 0.7992 0 0.000860765 0.000860765 6.01986e-05 67.5851 5887.28 8023.2 
522 0.8684 0.8684 0 0.000846235 0.000846235 -6.49668e-05 72.3019 5747.01 8381.19 
562 0.898 0.898 0 0.000797595 0.000797595 -8.68817e-05 75.2579 6317.6 8615.93 
602 0.825 0.825 0 0.000948448 0.000948448 0.000162623 69.4309 5604.41 7663.98 
642 0 0 0 0 0 0 0 0 0 
682 0.17 0.17 0 -0.00135498 -0.00135498 4.33298e-06 13.5064 629.642 1036.85 
722 0.2036 0.2036 0 -0.00167422 -0.00167422 1.27341e-05 16.6886 542.915 943.311 
762 0.2268 0.2268 0 -0.00185103 -0.00185103 8.47399e-06 18.4511 864.757 1362.05 
802 0.2328 0.2328 0 -0.00193297 -0.00193297 5.93015e-07 19.2678 1285.92 1643.59 
842 0.2264 0.2264 0 -0.00183558 -0.00183558 3.16446e-05 18.297 884.926 1318.19 
882 0.195 0.195 0 -0.00155756 -0.00155756 -4.47357e-05 15.5257 836.073 1029.7 
922 0.1418 0.1418 0 -0.00113107 -0.00113107 1.90904e-05 11.2745 588.086 934.51 
962 0.5508 0.5508 0 0.00167357 0.00167357 2.78627e-07 47.5807 6723.95 8785.2 
1002 0.8616 0.8616 0 0.000825499 0.000825499 0.000107603 72.9256 6313.1 8653.88 
1042 0.8786 0.8786 0 0.000763555 0.000763555 0.000108391 73.5362 5840.07 8371.63 
1082 0.8526 0.8526 0 0.000827768 0.000827768 -6.70768e-05 72.094 6121.37 8421.46 
1122 0.8102 0.8102 0 0.000855844 0.000855844 4.0043e-05 69.1482 6342.36 8560.21 
1162 0.738 0.738 0 0.000818697 0.000818697 1.43652e-05 62.5081 6197.25 8665.77 
1202 0.6354 0.6354 0 0.00104019 0.00104019 -3.32799e-05 54.4188 5978.97 7966.71 
1242 0.4856 0.4856 0 0.00133514 0.00133514 -3.75515e-05 39.9723 5254.29 7000.66 
3 0.0024 0.0024 0 1.48165e-05 1.48165e-05 -8.07516e-08 96.3424 11658.5 12787.6 
43 9.3956 9.3956 0 0.0778822 0.0778822 -0.000213847 776.329 47669 65589.3 
83 10.4036 10.4036 0 0.0848315 0.0848315 -8.51382e-05 845.6 44991.5 62264.5 
123 10.7484 10.7484 0 0.0874426 0.0874426 -0.000130497 871.628 41941.7 57483.8 
163 10.8316 10.8316 0 0.0883292 0.0883292 0.000108463 880.465 43665.2 59753.3 
203 10.8366 10.8366 0 0.0881903 0.0881903 0.000212132 879.08 44607.8 61717.7 
243 10.5822 10.5822 0 0.0867086 0.0867086 7.42097e-06 864.311 45165.1 62837.8 
283 9.6678 9.6678 0 0.079755 0.079755 -8.32106e-05 794.997 48292.3 65890.3 
323 0.0048 0.0048 0 3.30012e-05 3.30012e-05 -5.78344e-06 157.11 17735.8 22694.4 
363 0.5254 0.5254 0 0.00116703 0.00116703 -5.69068e-05 45.0694 5697.57 7357.5 
403 0.6738 0.6738 0 0.000939116 0.000939116 1.17465e-05 57.0386 5750.66 7885.25 
443 0.7668 0.7668 0 0.00100893 0.00100893 2.13792e-06 63.7529 5375.1 7464.38 
483 0.8306 0.8306 0 0.000815503 0.000815503 -0.000108516 70.9499 6314.46 8820.61 
523 0.8748 0.8748 0 0.000733596 0.000733596 -1.4872e-05 74.0236 5895.33 8530.83 
563 0.887 0.887 0 0.000897641 0.000897641 -2.87582e-05 73.5327 5974.88 8429.13 
603 0.837 0.837 0 0.000967392 0.000967392 1.41763e-05 68.9002 5649.36 7946.79 
643 0 0 0 0 0 0 0 0 0 
683 0.1668 0.1668 0 -0.00131032 -0.00131032 1.89424e-06 13.0612 636.011 968.872 
723 0.2006 0.2006 0 -0.00165082 -0.00165082 -1.81505e-05 16.4554 758.581 1070.6 
763 0.2274 0.2274 0 -0.00189656 -0.00189656 2.23774e-05 18.9049 1019.16 1583.48 
803 0.2436 0.2436 0 -0.002039 -0.002039 4.95514e-05 20.3248 1151.74 1558.13 
843 0.2412 0.2412 0 -0.00198239 -0.00198239 -9.99456e-06 19.7605 937.021 1496.36 
883 0.1916 0.1916 0 -0.00156533 -0.00156533 -3.06321e-05 15.6032 715.376 1078.57 
923 0.136 0.136 0 -0.00107459 -0.00107459 2.70803e-05 10.7115 659.744 1012.48 
963 0.5876 0.5876 0 0.00150524 0.00150524 5.15425e-05 50.7495 5536.03 7181.36 
1003 0.8662 0.8662 0 0.000865036 0.000865036 1.06484e-05 72.8776 5799.36 8099.61 
1043 0.8826 0.8826 0 0.000779023 0.000779023 2.51501e-05 73.9397 5847.6 8279.03 
1083 0.866 0.866 0 0.000952767 0.000952767 -4.97684e-05 73.4232 6104.4 8266.91 
1123 0.819 0.819 0 0.000884613 0.000884613 -1.52049e-05 69.0137 6131.7 8607.11 
1163 0.7446 0.7446 0 0.000928382 0.000928382 6.27909e-05 63.8768 6103.35 8429.2 
1203 0.6302 0.6302 0 0.00100994 0.00100994 6.02395e-06 53.5754 5728.91 7860.47 
1243 0.4854 0.4854 0 0.00131598 0.00131598 2.78784e-05 39.9283 5353.13 6826.39 
4 0.0018 0.0018 0 8.87618e-06 8.87618e-06 -4.3088e-07 56.2433 4702.23 9158.52 
44 9.4218 9.4218 0 0.0779372 0.0779372 -0.000217513 776.877 49138 67613.4 
84 10.4802 10.4802 0 0.0857269 0.0857269 0.000243737 854.525 45057.6 62420.4 
124 10.7282 10.7282 0 0.0876916 0.0876916 -5.46916e-06 874.109 41386.6 57410 
164 10.86 10.86 0 0.088255 0.088255 -4.02947e-05 879.725 42840.6 59429 
204 10.8996 10.8996 0 0.0886242 0.0886242 0.000262727 883.405 42919.6 59135.9 
244 10.464 10.464 0 0.0856729 0.0856729 0.000113037 853.987 45885.1 62839.9 
284 9.5554 9.5554 0 0.078943 0.078943 -2.67756e-06 786.903 48165 66664.1 
324 0.0022 0.0022 0 1.75079e-05 1.75079e-05 1.19208e-06 93.5269 9942.47 9349.62 
364 0.5344 0.5344 0 0.00117731 0.00117731 -3.39283e-06 45.5235 5830.41 7469.53 
404 0.6702 0.6702 0 0.000957894 0.000957894 6.92694e-05 56.5335 5606.08 7774.42 
444 0.7454 0.7454 0 0.000831437 0.000831437 -0.000153363 63.2343 6107.78 8496.61 
484 0.8588 0.8588 0 0.00090173 0.00090173 -5.15156e-05 72.6272 6362.35 8752.62 
524 0.8602 0.8602 0 0.000826174 0.000826174 -1.60629e-05 72.4459 5731.25 8029.59 
564 0.8854 0.8854 0 0.000845809 0.000845809 -1.2859e-05 74.81 6107.59 8332.79 
604 0.827 0.827 0 0.000921254 0.000921254 2.44886e-06 69.6553 5954.42 8015.67 
644 0.0002 0.0002 0 -1.37188e-06 -1.37188e-06 3.85582e-08 8.37113 1101.42 1577.14 
684 0.1606 0.1606 0 -0.00128425 -0.00128425 9.82014e-06 12.8014 520.132 780.272 
724 0.2024 0.2024 0 -0.00160104 -0.00160104 1.58746e-06 15.9592 681.14 1096.44 
764 0.2294 0.2294 0 -0.00188199 -0.00188199 2.83236e-05 18.7596 1071.92 1527.65 
804 0.2414 0.2414 0 -0.00199242 -0.00199242 5.47856e-05 19.8604 1196.54 1657.93 
844 0.237 0.237 0 -0.0019375 -0.0019375 1.54787e-05 19.313 1119.58 1588.77 
884 0.1994 0.1994 0 -0.00161455 -0.00161455 5.02013e-05 16.0938 916.412 1286.75 
924 0.1288 0.1288 0 -0.00103299 -0.00103299 -3.18127e-05 10.2969 495.242 815.512 
964 0.5906 0.5906 0 0.00139598 0.00139598 1.2088e-05 51.2737 6121.43 7841.13 
1004 0.8818 0.8818 0 0.000910325 0.000910325 3.22203e-05 72.5223 6114.34 8340.78 
1044 0.8722 0.8722 0 0.00087271 0.00087271 -0.000108696 74.2215 6134.54 8554.32 
1084 0.8742 0.8742 0 0.00085085 0.00085085 -5.40284e-05 73.5018 5866.8 8347.51 
1124 0.79 0.79 0 0.000884415 0.000884415 2.01188e-05 67.3887 6048.05 8408.95 
1164 0.7444 0.7444 0 0.000944062 0.000944062 3.96874e-05 63.0249 6154.16 8311.14 
1204 0.6294 0.6294 0 0.0011421 0.0011421 2.86073e-05 54.3512 6278.87 8108.05 
1244 0.4744 0.4744 0 0.00121521 0.00121521 5.16354e-06 39.0904 4986 6615.57 
5 0.0022 0.0022 0 1.91493e-05 1.91493e-05 1.14566e-06 77.4853 19433.1 27324.8 
45 9.5008 9.5008 0 0.0783864 0.0783864 -8.79793e-06 781.355 49111.8 67199.3 
85 10.4428 10.4428 0 0.0855564 0.0855564 -4.10449e-05 852.825 44138.3 60611.8 
125 10.78 10.78 0 0.087522 0.087522 -0.00014374 872.419 41991.3 59044.8 
165 10.9574 10.9574 0 0.0894206 0.0894206 -9.42774e-05 891.344 41805.7 58460.6 
205 10.8722 10.8722 0 0.0884012 0.0884012 -0.000400786 881.183 42652.9 58929.9 
245 10.5264 10.5264 0 0.0860927 0.0860927 -0.000211038 858.172 44620.9 61373.2 
285 9.5328 9.5328 0 0.0786551 0.0786551 0.000203157 784.033 47309.4 66185.5 
325 0.0038 0.0038 0 2.11371e-05 2.11371e-05 -7.10495e-06 142.649 9246.08 25690.3 
365 0.5398 0.5398 0 0.00119867 0.00119867 3.62161e-05 45.7161 5746.78 7501.98 
405 0.6968 0.6968 0 0.00112525 0.00112525 -5.19711e-05 59.7667 6409.5 8546.52 
445 0.7864 0.7864 0 0.000887028 0.000887028 -4.17557e-05 66.7881 6156.73 8610.83 
485 0.8228 0.8228 0 0.00090042 0.00090042 -7.22398e-05 69.4619 6377.06 8848.26 
525 0.9058 0.9058 0 0.000781261 0.000781261 -2.86272e-05 75.437 5890.63 8105.22 
565 0.9118 0.9118 0 0.000945364 0.000945364 5.8153e-05 76.3667 6246.77 8297.08 
605 0.8042 0.8042 0 0.000915049 0.000915049 -6.52847e-05 67.2524 5386.29 7744.47 
645 0.0004 0.0004 0 -1.73984e-06 -1.73984e-06 8.50409e-07 8.15128 -810.094 -1528.98 
685 0.16 0.16 0 -0.00132789 -0.00132789 -1.49004e-05 13.2364 531.098 824.059 
725 0.2112 0.2112 0 -0.00170244 -0.00170244 1.98265e-05 16.9699 670.126 1075.42 
765 0.2314 0.2314 0 -0.00190139 -0.00190139 5.93158e-06 18.9531 1079.16 1527.1 
805 0.2352 0.2352 0 -0.00193296 -0.00193296 -9.53838e-06 19.2678 1269.69 1749.65 
845 0.2164 0.2164 0 -0.00181596 -0.00181596 4.22289e-05 18.1015 907.932 1362.36 
885 0.2092 0.2092 0 -0.00167861 -0.00167861 2.19245e-05 16.7324 591.734 1005.76 
925 0.13 0.13 0 -0.00101803 -0.00101803 1.86738e-05 10.1478 449.61 779.18 
965 0.6272 0.6272 0 0.00145339 0.00145339 4.60338e-05 54.6742 6116.45 8269.44 
1005 0.8836 0.8836 0 0.000930453 0.000930453 -2.78725e-05 73.2231 5471.59 7334.73 
1045 0.8926 0.8926 0 0.000845143 0.000845143 -0.00010514 75.0371 6383.24 8692 
1085 0.8628 0.8628 0 0.000819001 0.000819001 -4.50922e-05 73.4395 6192.07 8857.97 
1125 0.8068 0.8068 0 0.000908947 0.000908947 2.18923e-05 68.7555 6779.29 9107.35 
1165 0.756 0.756 0 0.000903973 0.000903973 3.20438e-05 64.4351 6016.09 8480.26 
1205 0.6414 0.6414 0 0.00117532 0.00117532 7.1353e-05 54.3106 6022.13 8007.92 
1245 0.4616 0.4616 0 0.00126279 0.00126279 4.83487e-07 38.1052 4946.64 6415.72 
6 0.0036 0.0036 0 2.51761e-05 2.51761e-05 4.12963e-06 128.289 20717.5 27658.9 
46 9.612 9.612 0 0.0792765 0.0792765 0.000143342 790.228 48678.1 67047 
86 10.3218 10.3218 0 0.0846185 0.0846185 -0.000304039 843.477 44185.1 60978.4 
126 10.8504 10.8504 0 0.0884131 0.0884131 -0.000304244 881.302 43388 58663.4 
166 10.8398 10.8398 0 0.0882497 0.0882497 -0.000111507 879.672 41894.2 58896.7 
206 10.7728 10.7728 0 0.0875733 0.0875733 -8.38682e-05 872.93 42788.6 59691.1 
246 10.4384 10.4384 0 0.0855526 0.0855526 2.8081e-05 852.788 46134.9 63038.8 
286 9.528 9.528 0 0.0789393 0.0789393 -7.23834e-05 786.866 49021.6 66737.6 
326 0.0028 0.0028 0 1.7859e-05 1.7859e-05 -2.04551e-06 126.699 7660.38 17712.8 
366 0.5372 0.5372 0 0.0010656 0.0010656 2.13753e-05 45.2919 5098.81 6791.41 
406 0.6798 0.6798 0 0.00104468 0.00104468 1.96647e-05 58.4188 6217.53 8062.43 
446 0.7698 0.7698 0 0.000886266 0.000886266 3.00053e-05 65.6135 6264.12 8780.32 
486 0.8188 0.8188 0 0.000860347 0.000860347 1.78065e-05 69.8874 6447.06 8639.77 
526 0.876 0.876 0 0.000859298 0.000859298 5.62662e-05 73.8394 6312.74 8611.53 
566 0.8812 0.8812 0 0.000831315 0.000831315 -4.66475e-05 73.7729 6029.51 8323.48 
606 0.8158 0.8158 0 0.00101932 0.00101932 9.69309e-06 68.8097 5652.63 7550.71 
646 0.0004 0.0004 0 -2.09287e-06 -2.09287e-06 7.95645e-07 10.5372 -2115.53 2753.83 
686 0.1702 0.1702 0 -0.00137755 -0.00137755 -1.38978e-05 13.7314 459.219 1018.42 
726 0.214 0.214 0 -0.00174975 -0.00174975 -2.87464e-05 17.4415 862.182 1183.69 
766 0.232 0.232 0 -0.00194441 -0.00194441 -7.29678e-06 19.3819 1201.8 1579.93 
806 0.246 0.246 0 -0.00204963 -0.00204963 1.31837e-05 20.4307 1161.31 1686.72 
846 0.2248 0.2248 0 -0.0018023 -0.0018023 5.7604e-06 17.9653 973.618 1354.34 
886 0.1926 0.1926 0 -0.0015676 -0.0015676 -2.1529e-05 15.6258 867.151 1099.84 
926 0.1182 0.1182 0 -0.000948491 -0.000948491 -1.55163e-05 9.45456 586.449 867.539 
966 0.6406 0.6406 0 0.00138243 0.00138243 -5.27541e-05 54.707 6163.27 7966.9 
1006 0.8704 0.8704 0 0.000850005 0.000850005 2.93606e-05 72.8643 5728.04 8341.62 
1046 0.8808 0.8808 0 0.000749179 0.000749179 -8.56946e-05 74.3525 5777.54 8428.19 
1086 0.862 0.862 0 0.000786706 0.000786706 0.000111211 72.7345 6157.32 8715.74 
1126 0.8118 0.8118 0 0.000862851 0.000862851 7.72087e-05 68.4973 5777.93 8002.61 
1166 0.7444 0.7444 0 0.000921525 0.000921525 -4.63398e-05 64.6859 6371.98 8547.38 
1206 0.6116 0.6116 0 0.00101661 0.00101661 -3.18168e-05 52.1918 6127.83 7793.37 
1246 0.4664 0.4664 0 0.00132862 0.00132862 8.79554e-05 37.7869 4875.23 6211.19 
7 0.0032 0.0032 0 2.2236e-05 2.2236e-05 -3.80607e-07 121.442 3706.45 16453 
47 9.5728 9.5728 0 0.0791187 0.0791187 -5.54209e-05 788.655 49150.5 68227.1 
87 10.4226 10.4226 0 0.0853876 0.0853876 3.70485e-05 851.144 43143 60387.7 
127 10.7574 10.7574 0 0.0879348 0.0879348 4.40727e-05 876.534 41782.8 58343.9 
167 10.9514 10.9514 0 0.0891477 0.0891477 -1.72268e-05 888.624 41682.2 57569.2 
207 10.6916 10.6916 0 0.0871501 0.0871501 -0.000151245 868.712 44026.8 59562.8 
247 10.334 10.334 0 0.0847121 0.0847121 0.000236465 844.41 44463.1 61079.4 
287 9.4828 9.4828 0 0.0787731 0.0787731 7.32758e-05 785.21 48915.9 67004.1 
327 0.0016 0.0016 0 1.05407e-05 1.05407e-05 3.39236e-07 67.6391 2370.42 4356.74 
367 0.5578 0.5578 0 0.00109525 0.00109525 5.58873e-05 46.9348 5454.35 7159.79 
407 0.6684 0.6684 0 0.000941392 0.000941392 2.33068e-06 57.1138 6118.04 8176.18 
447 0.7644 0.7644 0 0.00093728 0.00093728 -8.52707e-05 65.4546 5966.57 8344 
487 0.8386 0.8386 0 0.000835709 0.000835709 -9.35859e-05 71.1185 6482.95 8844.16 
527 0.883 0.883 0 0.000940716 0.000940716 1.13853e-05 74.0368 6205.66 8725.07 
567 0.8944 0.8944 0 0.00098819 0.00098819 1.32865e-05 74.767 5797.13 8058.88 
607 0.8094 0.8094 0 0.000933559 0.000933559 8.17628e-05 67.5774 5825.01 8157.77 
647 0.0522 0.0522 0 -0.000360733 -0.000360733 1.62142e-05 3.59578 50.735 243.831 
687 0.1716 0.1716 0 -0.00140854 -0.00140854 -3.79359e-05 14.0403 615.705 923.794 
727 0.2098 0.2098 0 -0.00173604 -0.00173604 3.37915e-05 17.3048 658.283 1121.27 
767 0.2226 0.2226 0 -0.00185751 -0.00185751 -2.77318e-05 18.5157 1200.28 1632.74 
807 0.243 0.243 0 -0.00203876 -0.00203876 -1.26788e-05 20.3224 1378.24 1837 
847 0.206 0.206 0 -0.00167945 -0.00167945 -3.88053e-05 16.7407 949.299 1522.34 
887 0.193 0.193 0 -0.00158016 -0.00158016 7.75622e-05 15.751 726.987 1040.91 
927 0.123 0.123 0 -0.000934116 -0.000934116 -2.04057e-05 9.31127 496.647 805.661 
967 0.6522 0.6522 0 0.00123314 0.00123314 4.70092e-06 55.7895 5907.24 7764.52 
1007 0.8732 0.8732 0 0.000903432 0.000903432 -2.41663e-05 74.0375 6076.7 8365.96 
1047 0.87 0.87 0 0.000785739 0.000785739 5.1742e-05 73.1138 6540.24 9172.63 
1087 0.8568 0.8568 0 0.000844501 0.000844501 -4.38842e-06 72.2641 6114 8802.85 
1127 0.7818 0.7818 0 0.000835689 0.000835689 7.76063e-06 67.0131 6041.32 8277.65 
1167 0.7442 0.7442 0 0.000889096 0.000889096 -0.000177422 63.1261 6311.49 8828.88 
1207 0.6178 0.6178 0 0.00101128 0.00101128 -0.000160345 52.8563 5732.71 7508.81 
1247 0.4522 0.4522 0 0.00126679 0.00126679 2.97452e-05 36.8634 4692.04 6057.28 
8 0.0032 0.0032 0 2.59648e-05 2.59648e-05 1.87007e-06 144.733 16383.5 21322.4 
48 9.5964 9.5964 0 0.0793337 0.0793337 0.000137933 790.798 47900.9 66198.4 
88 10.4364 10.4364 0 0.0854776 0.0854776 -4.08583e-05 852.04 42630.4 60010 
128 10.9234 10.9234 0 0.0888648 0.0888648 3.50912e-05 885.804 41273.7 57008.6 
168 10.859 10.859 0 0.0883808 0.0883808 0.000185165 880.98 41928.6 58407.6 
208 10.7926 10.7926 0 0.0881155 0.0881155 0.000107648 878.334 42397.3 58608.2 
248 10.553 10.553 0 0.0864888 0.0864888 -3.48298e-05 862.12 45421 62309.2 
288 9.4378 9.4378 0 0.078224 0.078224 -0.000202412 779.736 49643.4 67914.3 
328 0.002 0.002 0 9.50314e-06 9.50314e-06 4.19906e-06 83.7338 15186.6 17103.5 
368 0.5464 0.5464 0 0.00120334 0.00120334 1.98839e-05 46.4276 5793.73 7697.68 
408 0.7076 0.7076 0 0.000997179 0.000997179 -4.21872e-05 60.6146 6530.74 8698.87 
448 0.7874 0.7874 0 0.000928349 0.000928349 2.00576e-05 67.1252 6136.33 8600.71 
488 0.8556 0.8556 0 0.000739277 0.000739277 -1.84675e-05 72.6347 6223.71 8492.54 
528 0.8618 0.8618 0 0.00098871 0.00098871 6.5338e-05 71.9365 5664.51 8099.67 
568 0.9052 0.9052 0 0.000849359 0.000849359 8.76465e-05 76.5195 6331.55 8826.75 
608 0.8276 0.8276 0 0.000908826 0.000908826 7.22614e-05 70.1004 5722.54 8257.19 
648 0.0576 0.0576 0 -0.000391652 -0.000391652 -2.21759e-05 3.90399 118.619 262.072 
688 0.1708 0.1708 0 -0.0013789 -0.0013789 1.18955e-05 13.7448 589.386 857.042 
728 0.212 0.212 0 -0.0017428 -0.0017428 -2.37282e-05 17.3722 804.047 1164.21 
768 0.2374 0.2374 0 -0.00192462 -0.00192462 -1.17448e-05 19.1846 1062.84 1553.58 
808 0.2354 0.2354 0 -0.00193317 -0.00193317 -2.84417e-06 19.2698 935.089 1211.17 
848 0.2318 0.2318 0 -0.00190048 -0.00190048 1.64305e-05 18.9439 741.515 1174.72 
888 0.179 0.179 0 -0.00146817 -0.00146817 3.03632e-06 14.6347 681.543 1001.17 
928 0.1164 0.1164 0 -0.000914045 -0.000914045 -1.84259e-06 9.11119 384.124 695.474 
968 0.6616 0.6616 0 0.00120187 0.00120187 1.26087e-05 56.8229 6008.28 7983.19 
1008 0.8726 0.8726 0 0.000754851 0.000754851 4.45806e-05 73.3026 5954.46 8235.92 
1048 0.8794 0.8794 0 0.000930072 0.000930072 7.00646e-05 73.5084 5268.2 7649.85 
1088 0.8456 0.8456 0 0.000882183 0.000882183 4.99846e-05 72.2104 6534.37 9327.17 
1128 0.8112 0.8112 0 0.000925886 0.000925886 -5.84972e-05 69.4158 6036.69 8458.66 
1168 0.7338 0.7338 0 0.000968437 0.000968437 -1.00687e-05 62.6952 6204.28 8619.83 
1208 0.6206 0.6206 0 0.00110702 0.00110702 7.55814e-05 52.8691 6414.83 8199.8 
1248 0.4644 0.4644 0 0.00125287 0.00125287 3.99709e-05 37.2817 4948.49 6420.11 
9 0.0032 0.0032 0 2.19788e-05 2.19788e-05 -2.93079e-06 111.884 9959.08 20467.1 
49 9.6164 9.6164 0 0.0794749 0.0794749 -0.000116509 792.205 47925.8 66357.1 
89 10.611 10.611 0 0.0867495 0.0867495 2.16159e-05 864.719 44768.5 61492.1 
129 10.8674 10.8674 0 0.0884035 0.0884035 -4.11623e-06 881.206 41734 58446.8 
169 10.8304 10.8304 0 0.0880545 0.0880545 -7.64719e-05 877.727 43520.7 59784.9 
209 10.7474 10.7474 0 0.0875573 0.0875573 -0.0001522 872.771 44168.3 60112 
249 10.3776 10.3776 0 0.0850017 0.0850017 -2.62684e-06 847.297 43904.3 62867.2 
289 9.3418 9.3418 0 0.0772531 0.0772531 -0.000197486 770.059 48663.9 66658.9 
329 0.0008 0.0008 0 4.26456e-06 4.26456e-06 -3.02799e-06 33.0357 6811.35 10667.1 
369 0.5732 0.5732 0 0.00118785 0.00118785 -1.3395e-05 49.1729 6411.1 8043.96 
409 0.6832 0.6832 0 0.000946293 0.000946293 -2.10522e-05 57.745 5933.22 8172.14 
449 0.7714 0.7714 0 0.000852335 0.000852335 -2.27485e-05 65.0892 6444.19 8804.75 
489 0.8564 0.8564 0 0.000785773 0.000785773 7.57033e-05 71.8044 5812 8319.81 
529 0.8666 0.8666 0 0.000930583 0.000930583 -2.28705e-05 73.5971 5981.54 8327.81 
569 0.889 0.889 0 0.000795182 0.000795182 5.45434e-06 74.9062 5633.72 8092.81 
609 0.801 0.801 0 0.00101597 0.00101597 -0.000104452 67.4962 6051.6 8176.41 
649 0.0636 0.0636 0 -0.00044353 -0.00044353 3.11827e-05 4.4211 146.273 267.508 
689 0.1758 0.1758 0 -0.00141344 -0.00141344 -3.76651e-06 14.0891 653.968 950.9 
729 0.2014 0.2014 0 -0.00163768 -0.00163768 4.07586e-06 16.3243 825.62 1379.46 
769 0.2398 0.2398 0 -0.00198373 -0.00198373 -3.62052e-05 19.7738 1387.38 1764.97 
809 0.2418 0.2418 0 -0.00201157 -0.00201157 -2.08737e-05 20.0513 1390.62 1946.95 
849 0.2326 0.2326 0 -0.00191891 -0.00191891 -2.10465e-05 19.1277 893.077 1224.58 
889 0.1978 0.1978 0 -0.00160863 -0.00160863 -3.71264e-05 16.0348 713.675 982.44 
929 0.1048 0.1048 0 -0.000840446 -0.000840446 2.40932e-05 8.37756 466.858 730.209 
969 0.698 0.698 0 0.00114404 0.00114404 2.24506e-05 59.3277 6083.9 8131.06 
1009 0.8606 0.8606 0 0.000913991 0.000913991 -5.77656e-05 71.5835 5681.44 7963.9 
1049 0.8904 0.8904 0 0.000849337 0.000849337 8.13942e-05 74.7607 5829.24 8178.96 
1089 0.8482 0.8482 0 0.000856366 0.000856366 -9.02357e-06 71.5519 6173.56 8547.05 
1129 0.8172 0.8172 0 0.00086444 0.00086444 1.95477e-05 68.7312 6506.39 8888.58 
1169 0.7166 0.7166 0 0.000887637 0.000887637 -1.27486e-05 60.7398 5531.75 7597.98 
1209 0.6004 0.6004 0 0.00095163 0.00095163 -3.03917e-05 51.2967 6328.7 8272.46 
1249 0.444 0.444 0 0.00131774 0.00131774 -2.56457e-05 35.8801 4354.1 5859.45 
10 0.0044 0.0044 0 3.61634e-05 3.61634e-05 5.15247e-06 202.647 10715 27333.1 
50 9.6898 9.6898 0 0.0800837 0.0800837 0.0001152 798.274 48160 65972.8 
90 10.5136 10.5136 0 0.0859075 0.0859075 0.00011563 856.326 43558.3 59813 
130 10.6724 10.6724 0 0.086945 0.086945 0.000267916 866.667 42502.3 58553.7 
170 10.8786 10.8786 0 0.088503 0.088503 -5.53287e-05 882.197 42286.7 59525.5 
210 10.7994 10.7994 0 0.0879104 0.0879104 -0.000273956 876.291 43575.7 61017.6 
250 10.329 10.329 0 0.0847255 0.0847255 -0.00017976 844.543 46354.4 62961.9 
290 9.1968 9.1968 0 0.07651 0.07651 -3.44393e-05 762.651 48439.3 67020.2 
330 0.001 0.001 0 5.4985e-06 5.4985e-06 -8.75258e-07 38.9268 9750.71 12313.3 
370 0.5662 0.5662 0 0.00120631 0.00120631 -8.90272e-05 47.9045 5779.32 7578.68 
410 0.6802 0.6802 0 0.00105577 0.00105577 1.68974e-05 58.2199 6184.25 8277.5 
450 0.7556 0.7556 0 0.000862981 0.000862981 0.000103728 63.6623 5774.04 8166.89 
490 0.833 0.833 0 0.000873592 0.000873592 4.07619e-05 70.6588 6195.21 8797.56 
530 0.8696 0.8696 0 0.000882373 0.000882373 -7.36249e-05 73.6859 6378.66 8749.96 
570 0.863 0.863 0 0.000808149 0.000808149 -5.57214e-05 72.4726 5613.51 7836.09 
610 0.8104 0.8104 0 0.000836301 0.000836301 4.83781e-05 67.8923 5802.35 8021.65 
650 0.0678 0.0678 0 -0.000477054 -0.000477054 -5.11925e-06 4.75527 250.246 405.068 
690 0.1732 0.1732 0 -0.00139144 -0.00139144 3.18989e-05 13.8698 578.414 903.161 
730 0.2196 0.2196 0 -0.0018153 -0.0018153 2.57305e-05 18.0949 923.705 1347.98 
770 0.2322 0.2322 0 -0.00191399 -0.00191399 1.92208e-05 19.0786 1071.17 1617.08 
810 0.2408 0.2408 0 -0.00198936 -0.00198936 5.01502e-05 19.8299 1352.48 1809.63 
850 0.2212 0.2212 0 -0.0018001 -0.0018001 -2.72002e-06 17.9434 940.236 1467.83 
890 0.2022 0.2022 0 -0.00168197 -0.00168197 -3.09012e-05 16.7658 691.649 986.605 
930 0.1176 0.1176 0 -0.000916784 -0.000916784 -5.45589e-06 9.1385 253.652 548.864 
970 0.7146 0.7146 0 0.0010855 0.0010855 2.07071e-05 60.5814 5439.02 7883.76 
1010 0.8976 0.8976 0 0.000871417 0.000871417 -1.91729e-05 75.4638 6211.63 8540.21 
1050 0.919 0.919 0 0.00082643 0.00082643 -7.67462e-06 77.2961 6098.3 8650.74 
1090 0.8356 0.8356 0 0.000837205 0.000837205 -3.00193e-05 70.412 5458.17 7654.21 
1130 0.8048 0.8048 0 0.000926911 0.000926911 6.64246e-05 68.4727 5776.03 7926.21 
1170 0.7246 0.7246 0 0.000974384 0.000974384 5.72419e-05 61.8623 6145.29 8630.18 
1210 0.6202 0.6202 0 0.00106954 0.00106954 1.34183e-05 52.5825 6317.86 8472.87 
1250 0.4438 0.4438 0 0.00135135 0.00135135 0.000100288 35.2573 4895.74 6430.47 
11 0.0052 0.0052 0 5.04956e-05 5.04956e-05 -2.0242e-06 257.892 41214.3 53768.3 
51 9.7106 9.7106 0 0.080253 0.080253 0.000226793 799.962 47647.2 65644.1 
91 10.4164 10.4164 0 0.085255 0.085255 -0.000408979 849.822 43756.6 59729.9 
131 10.7878 10.7878 0 0.0878459 0.0878459 -0.00010529 875.647 41876.8 57236.4 
171 10.8872 10.8872 0 0.0885367 0.0885367 3.64103e-06 882.534 42230.8 59331 
211 10.7296 10.7296 0 0.0875558 0.0875558 -0.000108933 872.755 42211.1 58443.2 
251 10.37 10.37 0 0.0851017 0.0851017 -7.27109e-06 848.293 44243.3 61447.7 
291 9.2798 9.2798 0 0.0769768 0.0769768 -6.28825e-05 767.305 49175.2 67907.6 
331 0.0014 0.0014 0 1.96755e-06 1.96755e-06 1.0245e-07 41.6145 5130.68 4888.39 
371 0.5606 0.5606 0 0.00106873 0.00106873 2.32809e-05 47.6657 6143.63 8034.67 
411 0.71 0.71 0 0.000876174 0.000876174 4.51688e-05 59.8094 5787.95 7982.97 
451 0.7858 0.7858 0 0.000990539 0.000990539 4.95306e-05 67.2656 6107.92 8500.26 
491 0.8452 0.8452 0 0.000823937 0.000823937 2.28225e-05 71.1488 5821.29 8068.1 
531 0.8812 0.8812 0 0.000721963 0.000721963 1.2724e-05 73.5789 5992.53 8477.84 
571 0.8734 0.8734 0 0.000828575 0.000828575 -1.78955e-06 73.1427 5886.37 7702.37 
611 0.7904 0.7904 0 0.00105698 0.00105698 -8.92552e-05 66.501 5896.02 7977.68 
651 0.065 0.065 0 -0.000452719 -0.000452719 -1.14356e-05 4.5127 269.205 417.498 
691 0.1708 0.1708 0 -0.00137123 -0.00137123 -3.79944e-05 13.6684 914.594 1390.97 
731 0.2238 0.2238 0 -0.00180841 -0.00180841 1.29484e-05 18.0262 1031.53 1419.08 
771 0.2334 0.2334 0 -0.00191336 -0.00191336 2.33715e-06 19.0723 963.892 1437.15 
811 0.232 0.232 0 -0.00191499 -0.00191499 -3.21428e-05 19.0886 1080.48 1580.09 
851 0.2232 0.2232 0 -0.00182424 -0.00182424 1.4714e-06 18.184 895.075 1191.95 
891 0.1842 0.1842 0 -0.00151197 -0.00151197 -2.12065e-05 15.0714 727.244 1062.31 
931 0.1044 0.1044 0 -0.000812582 -0.000812582 -1.92322e-05 8.09982 299.102 502.535 
971 0.7102 0.7102 0 0.00109064 0.00109064 -3.38239e-05 59.6462 5879.27 8114.59 
1011 0.8814 0.8814 0 0.000888028 0.000888028 4.62495e-05 74.5977 6001.14 8241.21 
1051 0.8596 0.8596 0 0.000715091 0.000715091 -6.1795e-05 71.6643 5561.44 8122.67 
1091 0.8416 0.8416 0 0.000779514 0.000779514 1.97997e-05 71.1901 5836.18 8169.73 
1131 0.8074 0.8074 0 0.000811575 0.000811575 -4.30999e-05 68.5897 5969.31 8319.36 
1171 0.7198 0.7198 0 0.000954647 0.000954647 2.71662e-05 61.9775 6460.1 8680.33 
1211 0.583 0.583 0 0.00102373 0.00102373 -2.77964e-05 50.0895 5994.63 7907.74 
1251 0.4438 0.4438 0 0.00139036 0.00139036 -4.94428e-05 35.7762 5227.91 6518.38 
12 0.0076 0.0076 0 7.10429e-05 7.10429e-05 -2.61451e-06 325.365 48667.9 72744.1 
52 9.7712 9.7712 0 0.0805858 0.0805858 -0.000262128 803.279 49080.3 66215.4 
92 10.4758 10.4758 0 0.0856848 0.0856848 -1.48189e-05 854.106 44624 61163 
132 10.8836 10.8836 0 0.0882019 0.0882019 -1.20793e-05 879.196 41534.1 56445.6 
172 10.9134 10.9134 0 0.0888969 0.0888969 3.22218e-06 886.124 44250.5 60566.5 
212 10.8336 10.8336 0 0.0880362 0.0880362 0.000172181 877.544 43155.2 59459.5 
252 10.3678 10.3678 0 0.0847942 0.0847942 -0.00010448 845.228 44221.7 61954 
292 9.3186 9.3186 0 0.0774747 0.0774747 2.17792e-05 772.267 50711.1 69410.6 
332 0.4418 0.4418 0 0.00142202 0.00142202 -6.62917e-05 31.7574 3518.06 5531.44 
372 0.566 0.566 0 0.00110354 0.00110354 -6.45756e-07 48.1219 5493.14 7411.75 
412 0.7074 0.7074 0 0.000993084 0.000993084 4.39888e-05 59.8591 6285.83 8382.17 
452 0.793 0.793 0 0.000863708 0.000863708 -4.89523e-05 67.5675 6476.19 8790.13 
492 0.837 0.837 0 0.000835403 0.000835403 -4.03264e-05 70.1843 5967.16 8394.61 
532 0.8846 0.8846 0 0.000789076 0.000789076 -6.70468e-07 74.2197 6107.43 8710.24 
572 0.9008 0.9008 0 0.000862938 0.000862938 2.18209e-05 75.4177 6171.74 8735.08 
612 0.7852 0.7852 0 0.000955768 0.000955768 -4.00206e-05 66.9807 5621.82 7540.13 
652 0.0686 0.0686 0 -0.000498296 -0.000498296 2.87806e-06 4.96701 267.135 413.856 
692 0.1766 0.1766 0 -0.00141278 -0.00141278 -2.2313e-05 14.0826 505.521 902.542 
732 0.2216 0.2216 0 -0.00178054 -0.00178054 -3.83098e-05 17.7484 882.205 1197.59 
772 0.2322 0.2322 0 -0.00192185 -0.00192185 -8.18698e-06 19.157 1056.35 1586.09 
812 0.241 0.241 0 -0.00198443 -0.00198443 -1.85906e-05 19.7808 840.665 1297.63 
852 0.22 0.22 0 -0.00179868 -0.00179868 2.76591e-05 17.9292 846.417 1246.35 
892 0.176 0.176 0 -0.00144176 -0.00144176 -3.35617e-06 14.3715 648.906 941.585 