ITEM: TIMESTEP
25000
ITEM: NUMBER OF SURFS
1260
ITEM: BOX BOUNDS oo rr pp
0 0.3
0 0.3
-0.5 0.5
ITEM: SURFS id f_4[1] f_4[2] f_4[3] f_4[4] f_4[5] f_4[6] f_4[7] f_4[8] f_4[9] 
1 0.001 0.001 0 1.2067e-08 1.2067e-08 1.61295e-09 0.0425765 47.1729 43.1833 
41 5.8226 5.8226 0 0.000117952 0.000117952 -2.44559e-07 1.17574 592.351 605.061 
81 5.8574 5.8574 0 0.000117142 0.000117142 -3.00981e-07 1.16767 583.15 596.946 
121 5.8374 5.8374 0 0.000115554 0.000115554 -1.43407e-07 1.15184 573.635 587.235 
161 5.8924 5.8924 0 0.000117056 0.000117056 -9.92086e-08 1.16681 578.561 592.561 
201 5.929 5.929 0 0.000117748 0.000117748 -1.13212e-08 1.17371 582.604 596.105 
241 5.936 5.936 0 0.000118602 0.000118602 1.28048e-07 1.18222 588.433 602.539 
281 5.8956 5.8956 0 0.00011872 0.00011872 9.54644e-08 1.1834 598.261 610.43 
321 0.0096 0.0096 0 1.79453e-07 1.79453e-07 -2.64046e-09 0.930625 483.764 501.517 
361 0.604 0.604 0 6.01162e-06 6.01162e-06 -6.72916e-08 0.0555148 49.8787 51.5877 
401 0.6016 0.6016 0 6.20212e-06 6.20212e-06 -2.36627e-08 0.0557721 52.7065 54.7187 
441 0.5958 0.5958 0 6.12303e-06 6.12303e-06 3.00554e-08 0.0550245 51.8692 53.5862 
481 0.5974 0.5974 0 6.11265e-06 6.11265e-06 2.22588e-09 0.0557437 52.0354 53.8333 
521 0.5732 0.5732 0 6.07453e-06 6.07453e-06 -5.16436e-08 0.0527918 50.3848 51.5665 
561 0.5674 0.5674 0 6.23256e-06 6.23256e-06 -3.55765e-08 0.0520172 52.4623 53.7441 
601 0.5654 0.5654 0 6.11543e-06 6.11543e-06 7.21286e-08 0.0510387 50.7693 52.0433 
641 0 0 0 0 0 0 0 0 0 
681 0.0002 0.0002 0 -2.52436e-10 -2.52436e-10 -3.87879e-10 2.51628e-06 0.000385966 0.00111029 
721 0.0002 0.0002 0 -6.7839e-10 -6.7839e-10 4.2994e-10 6.76218e-06 0.00570816 0.00171319 
761 0.0004 0.0004 0 -1.6354e-09 -1.6354e-09 3.76616e-09 1.63016e-05 0.0113814 0.0130632 
801 0.0002 0.0002 0 -1.26492e-09 -1.26492e-09 1.99903e-09 1.26087e-05 0.00383638 0.0043371 
841 0.0004 0.0004 0 -1.19297e-09 -1.19297e-09 -1.6324e-09 1.18916e-05 0.0182792 0.0182466 
881 0.0002 0.0002 0 -8.50344e-10 -8.50344e-10 1.02443e-10 8.47623e-06 0.00283843 -0.00561711 
921 0.001 0.001 0 -6.19452e-09 -6.19452e-09 -8.28888e-10 6.17469e-05 0.0139992 0.0189962 
961 0.0008 0.0008 0 9.23087e-09 9.23087e-09 2.55887e-10 0.0390178 45.4092 45.5617 
1001 0.5602 0.5602 0 6.00807e-06 6.00807e-06 3.27326e-08 0.0514473 50.9896 52.4914 
1041 0.5512 0.5512 0 5.94739e-06 5.94739e-06 2.99429e-08 0.0506308 49.92 51.6093 
1081 0.5644 0.5644 0 6.02675e-06 6.02675e-06 -7.2083e-08 0.05142 50.169 51.8503 
1121 0.5706 0.5706 0 6.11178e-06 6.11178e-06 -8.10037e-09 0.0515361 51.2421 52.8013 
1161 0.5888 0.5888 0 5.99949e-06 5.99949e-06 4.23637e-08 0.0542607 50.4405 51.8867 
1201 0.6032 0.6032 0 6.23202e-06 6.23202e-06 -4.61344e-08 0.0557701 52.2704 53.7698 
1241 0.6126 0.6126 0 6.26562e-06 6.26562e-06 2.73399e-08 0.0563418 52.0942 53.6982 
2 0.0032 0.0032 0 3.60593e-08 3.60593e-08 -2.5358e-09 0.163189 140.394 146.414 
42 5.88 5.88 0 0.000119309 0.000119309 1.95291e-07 1.18927 594.619 607.077 
82 5.8454 5.8454 0 0.000117193 0.000117193 -8.0889e-08 1.16818 581.382 594.3 
122 5.9066 5.9066 0 0.000117023 0.000117023 4.17221e-07 1.16649 579.193 593.133 
162 5.9106 5.9106 0 0.000117209 0.000117209 1.64885e-07 1.16834 581.484 596.506 
202 5.8928 5.8928 0 0.000117114 0.000117114 6.99559e-08 1.16739 587.495 600.598 
242 5.8994 5.8994 0 0.000118061 0.000118061 -7.28669e-08 1.17684 586.116 598.344 
282 5.8934 5.8934 0 0.000119124 0.000119124 -1.38855e-07 1.18743 598.221 611.191 
322 0.0066 0.0066 0 1.1638e-07 1.1638e-07 -2.18573e-10 0.575485 319.803 304.604 
362 0.6108 0.6108 0 6.09515e-06 6.09515e-06 -1.84437e-09 0.0570817 51.2958 53.1485 
402 0.5824 0.5824 0 6.07097e-06 6.07097e-06 3.17101e-08 0.0530887 50.8058 52.1448 
442 0.5834 0.5834 0 5.95974e-06 5.95974e-06 2.78415e-08 0.0538132 50.2976 51.8699 
482 0.5992 0.5992 0 6.28213e-06 6.28213e-06 -5.51353e-08 0.0550403 52.6711 53.9432 
522 0.5828 0.5828 0 6.17656e-06 6.17656e-06 1.44317e-08 0.0529672 51.2456 52.3792 
562 0.587 0.587 0 6.22915e-06 6.22915e-06 -3.80052e-08 0.0541281 52.4136 53.6291 
602 0.5586 0.5586 0 6.14519e-06 6.14519e-06 3.90505e-09 0.0507555 50.7989 51.9571 
642 0 0 0 0 0 0 0 0 0 
682 0.001 0.001 0 -5.55213e-09 -5.55213e-09 6.98782e-10 5.53436e-05 0.00769284 0.0154322 
722 0.0006 0.0006 0 -4.10535e-09 -4.10535e-09 2.11199e-09 4.09222e-05 0.0106354 0.0169666 
762 0.0006 0.0006 0 -3.65194e-09 -3.65194e-09 4.65851e-10 3.64025e-05 0.0116572 0.0162104 
802 0.0004 0.0004 0 -1.94518e-09 -1.94518e-09 -1.47005e-09 1.93896e-05 0.00825776 0.00978999 
842 0.001 0.001 0 -7.3302e-09 -7.3302e-09 2.08248e-09 7.30674e-05 0.0254576 0.0320848 
882 0.0002 0.0002 0 -1.71187e-09 -1.71187e-09 1.86217e-09 1.70639e-05 0.00721637 0.0054297 
922 0.0006 0.0006 0 -4.29717e-09 -4.29717e-09 -2.17184e-10 4.28342e-05 0.00413156 -0.00194492 
962 0.5602 0.5602 0 6.1954e-06 6.1954e-06 -5.14619e-08 0.0519209 51.7002 52.7205 
1002 0.5552 0.5552 0 5.99852e-06 5.99852e-06 -4.45206e-08 0.0509151 50.5559 52.1055 
1042 0.551 0.551 0 5.86756e-06 5.86756e-06 4.75597e-08 0.0506637 48.62 50.2793 
1082 0.5676 0.5676 0 5.88729e-06 5.88729e-06 -2.97643e-08 0.05192 50.1624 51.5412 
1122 0.59 0.59 0 6.20343e-06 6.20343e-06 -1.29773e-08 0.0545425 52.2473 53.6973 
1162 0.6032 0.6032 0 6.30193e-06 6.30193e-06 2.50255e-08 0.0558442 52.8796 54.4219 
1202 0.5986 0.5986 0 6.12704e-06 6.12704e-06 4.6041e-09 0.0550896 50.7161 51.9482 
1242 0.625 0.625 0 6.33946e-06 6.33946e-06 -6.04062e-08 0.0577202 52.7413 54.8659 
3 0.0018 0.0018 0 3.1109e-08 3.1109e-08 -3.00794e-10 0.0875488 133.349 133.198 
43 5.8704 5.8704 0 0.0001184 0.0001184 9.79854e-08 1.18021 598.376 610.899 
83 5.8962 5.8962 0 0.000117525 0.000117525 1.24452e-07 1.17149 586.851 599.194 
123 5.9108 5.9108 0 0.000117009 0.000117009 3.60304e-07 1.16634 582.946 597.429 
163 5.8952 5.8952 0 0.000116565 0.000116565 2.17243e-08 1.16192 579.002 592.762 
203 5.9104 5.9104 0 0.000117462 0.000117462 3.41361e-07 1.17086 579.942 594.553 
243 5.9054 5.9054 0 0.000118233 0.000118233 1.54882e-07 1.17854 589.108 601.121 
283 5.9272 5.9272 0 0.000120027 0.000120027 4.70506e-08 1.19643 600.568 612.742 
323 0.0078 0.0078 0 1.51677e-07 1.51677e-07 1.32565e-09 0.716681 458.554 463.239 
363 0.617 0.617 0 6.36034e-06 6.36034e-06 -4.46791e-08 0.0565441 52.9295 54.5765 
403 0.613 0.613 0 6.48691e-06 6.48691e-06 8.69032e-08 0.0563913 54.5293 55.9879 
443 0.5888 0.5888 0 6.10877e-06 6.10877e-06 6.90414e-08 0.0538783 51.4067 53.0469 
483 0.5824 0.5824 0 6.07061e-06 6.07061e-06 -4.87755e-08 0.0535864 50.9285 52.436 
523 0.5852 0.5852 0 6.35192e-06 6.35192e-06 6.69409e-08 0.0537814 53.1274 54.7515 
563 0.565 0.565 0 5.93593e-06 5.93593e-06 2.63821e-08 0.052575 50.8048 52.4901 
603 0.5546 0.5546 0 6.26467e-06 6.26467e-06 -2.44374e-08 0.0507844 52.4286 53.7512 
643 0 0 0 0 0 0 0 0 0 
683 0.0004 0.0004 0 -7.4489e-10 -7.4489e-10 1.62472e-10 7.42507e-06 0.0109793 0.011579 
723 0.0002 0.0002 0 -1.2204e-09 -1.2204e-09 1.16758e-09 1.21649e-05 -0.00138556 -0.00270078 
763 0.0004 0.0004 0 -1.68614e-09 -1.68614e-09 9.96749e-11 1.68074e-05 0.00918622 0.013203 
803 0.001 0.001 0 -7.5052e-09 -7.5052e-09 -4.31105e-09 7.48118e-05 0.0754819 0.0798056 
843 0.0006 0.0006 0 -2.98195e-09 -2.98195e-09 2.15499e-09 2.9724e-05 0.0212531 0.0128528 
883 0 0 0 0 0 0 0 0 0 
923 0.0002 0.0002 0 -1.54319e-09 -1.54319e-09 -1.35279e-09 1.53825e-05 0.0145146 0.0229368 
963 0.5768 0.5768 0 6.40359e-06 6.40359e-06 -5.23771e-08 0.0524375 53.0826 54.1778 
1003 0.549 0.549 0 6.01516e-06 6.01516e-06 -6.30922e-08 0.0501466 49.8216 51.2681 
1043 0.5928 0.5928 0 6.39352e-06 6.39352e-06 1.97781e-08 0.0547696 53.692 55.0201 
1083 0.5824 0.5824 0 6.22924e-06 6.22924e-06 -6.69742e-08 0.0548808 51.768 53.2372 
1123 0.5956 0.5956 0 6.16921e-06 6.16921e-06 5.21062e-08 0.0554871 51.4183 53.1386 
1163 0.5804 0.5804 0 6.10836e-06 6.10836e-06 -5.63732e-08 0.0524504 51.5017 53.0531 
1203 0.5928 0.5928 0 6.19641e-06 6.19641e-06 -7.48826e-09 0.0543976 51.6899 53.4231 
1243 0.6162 0.6162 0 6.13503e-06 6.13503e-06 2.73203e-08 0.0565095 49.8119 51.0456 
4 0.004 0.004 0 5.98289e-08 5.98289e-08 8.41957e-10 0.204878 213.73 240.336 
44 5.8836 5.8836 0 0.000119152 0.000119152 -1.01708e-07 1.1877 598.252 611.013 
84 5.8802 5.8802 0 0.000117051 0.000117051 1.08769e-07 1.16676 586.515 599.838 
124 5.8924 5.8924 0 0.000117718 0.000117718 -3.21718e-08 1.17341 584.831 598.141 
164 5.9102 5.9102 0 0.000116979 0.000116979 -4.56409e-08 1.16604 580.831 595.664 
204 5.9058 5.9058 0 0.000117108 0.000117108 1.65739e-07 1.16733 579.21 593.337 
244 5.8926 5.8926 0 0.000117928 0.000117928 6.67834e-08 1.1755 586.777 601.056 
284 5.8528 5.8528 0 0.000118512 0.000118512 -2.21123e-07 1.18133 595.504 606.885 
324 0.0074 0.0074 0 1.27003e-07 1.27003e-07 6.52996e-10 0.604939 402.607 394.845 
364 0.5926 0.5926 0 5.93524e-06 5.93524e-06 -3.81104e-08 0.0550221 49.8012 51.3132 
404 0.596 0.596 0 6.33728e-06 6.33728e-06 -8.28756e-08 0.0552617 53.1956 55.0048 
444 0.593 0.593 0 6.31231e-06 6.31231e-06 -6.9504e-08 0.0539477 53.0331 54.7772 
484 0.5874 0.5874 0 6.27254e-06 6.27254e-06 -8.35444e-08 0.0537782 52.1773 53.9629 
524 0.5556 0.5556 0 6.06506e-06 6.06506e-06 2.3207e-08 0.0508391 50.9328 52.0225 
564 0.5636 0.5636 0 6.14705e-06 6.14705e-06 -1.72684e-08 0.0515198 50.4357 51.6741 
604 0.572 0.572 0 6.26284e-06 6.26284e-06 -2.45223e-08 0.051812 52.2681 53.8391 
644 0 0 0 0 0 0 0 0 0 
684 0.0006 0.0006 0 -4.27893e-09 -4.27893e-09 3.02048e-09 4.26523e-05 0.00496591 0.000458115 
724 0.0004 0.0004 0 -1.48523e-09 -1.48523e-09 1.56003e-09 1.48048e-05 0.0137795 0.0215312 
764 0.0014 0.0014 0 -7.87514e-09 -7.87514e-09 -1.08323e-09 7.84993e-05 0.0143554 0.0264449 
804 0.0004 0.0004 0 -1.63994e-09 -1.63994e-09 5.43121e-10 1.63469e-05 0.0169048 0.0142008 
844 0.0008 0.0008 0 -4.65356e-09 -4.65356e-09 7.37217e-10 4.63867e-05 0.0153031 0.0369028 
884 0.001 0.001 0 -4.76431e-09 -4.76431e-09 -3.07522e-09 4.74906e-05 0.0106459 0.0179101 
924 0.0004 0.0004 0 -3.11761e-09 -3.11761e-09 -6.164e-10 3.10763e-05 0.00713791 0.0132578 
964 0.56 0.56 0 6.17027e-06 6.17027e-06 -3.39293e-09 0.0512697 51.9905 53.2313 
1004 0.5724 0.5724 0 6.21478e-06 6.21478e-06 -1.10694e-07 0.0522638 52.3904 53.9849 
1044 0.5944 0.5944 0 6.45837e-06 6.45837e-06 1.21017e-09 0.0540133 53.9962 55.3774 
1084 0.5794 0.5794 0 6.17288e-06 6.17288e-06 1.20601e-07 0.0533909 51.3418 52.4181 
1124 0.5822 0.5822 0 6.2206e-06 6.2206e-06 1.21431e-07 0.0539092 52.1649 53.7201 
1164 0.5852 0.5852 0 6.18758e-06 6.18758e-06 7.65865e-08 0.0532405 52.242 53.767 
1204 0.6096 0.6096 0 6.24299e-06 6.24299e-06 8.15632e-08 0.0559208 51.7987 53.3402 
1244 0.6332 0.6332 0 6.18437e-06 6.18437e-06 -5.20894e-10 0.058008 52.2236 53.9149 
5 0.0062 0.0062 0 9.36426e-08 9.36426e-08 8.25423e-09 0.377618 303.685 337.911 
45 5.873 5.873 0 0.00011907 0.00011907 -3.01414e-07 1.18689 600.696 612.595 
85 5.815 5.815 0 0.000116602 0.000116602 -1.75708e-07 1.16229 579.956 593.131 
125 5.8854 5.8854 0 0.000117321 0.000117321 6.87805e-08 1.16945 581.617 594.548 
165 5.901 5.901 0 0.000116534 0.000116534 1.38698e-07 1.16161 580.209 593.958 
205 5.8804 5.8804 0 0.000117011 0.000117011 -3.43111e-08 1.16636 580.5 593.774 
245 5.957 5.957 0 0.000119381 0.000119381 -2.14273e-07 1.18999 591.906 606.107 
285 5.8422 5.8422 0 0.000118097 0.000118097 -1.91353e-08 1.17719 591.701 604.524 
325 0.0048 0.0048 0 8.45162e-08 8.45162e-08 -1.0648e-09 0.417821 270.563 266.322 
365 0.6054 0.6054 0 6.21369e-06 6.21369e-06 -1.0349e-08 0.0559908 52.1287 53.7186 
405 0.5976 0.5976 0 6.13096e-06 6.13096e-06 6.08134e-08 0.0547003 51.6524 53.4176 
445 0.5864 0.5864 0 6.28985e-06 6.28985e-06 -6.44364e-08 0.0534647 52.3331 53.7162 
485 0.5916 0.5916 0 6.24857e-06 6.24857e-06 5.08759e-08 0.0543082 52.5239 54.3796 
525 0.5602 0.5602 0 6.11046e-06 6.11046e-06 2.46805e-08 0.052133 51.6938 53.0263 
565 0.5616 0.5616 0 5.86836e-06 5.86836e-06 -1.85868e-08 0.0518315 50.0588 51.9147 
605 0.577 0.577 0 6.44164e-06 6.44164e-06 -5.68071e-08 0.0530551 53.8578 55.3827 
645 0 0 0 0 0 0 0 0 0 
685 0.001 0.001 0 -5.31325e-09 -5.31325e-09 2.50525e-09 5.29625e-05 0.0110883 0.0160107 
725 0.0006 0.0006 0 -2.76873e-09 -2.76873e-09 -3.45483e-09 2.75987e-05 0.0131239 0.0103637 
765 0.0006 0.0006 0 -4.02398e-09 -4.02398e-09 1.90938e-09 4.0111e-05 0.0016482 0.00456549 
805 0.0004 0.0004 0 -2.76413e-09 -2.76413e-09 1.55316e-09 2.75528e-05 0.000614465 0.00648358 
845 0.0004 0.0004 0 -4.46765e-09 -4.46765e-09 -2.96674e-11 4.45335e-05 0.0159098 0.0130577 
885 0.0006 0.0006 0 -4.50544e-09 -4.50544e-09 -9.46794e-10 4.49102e-05 0.00942401 0.0199434 
925 0.001 0.001 0 -4.90023e-09 -4.90023e-09 -2.13457e-09 4.88455e-05 0.00521766 0.00103125 
965 0.571 0.571 0 6.35317e-06 6.35317e-06 -3.10388e-08 0.0522425 53.0976 54.926 
1005 0.5646 0.5646 0 6.04896e-06 6.04896e-06 -5.7097e-09 0.051572 50.7888 52.2085 
1045 0.5772 0.5772 0 6.25478e-06 6.25478e-06 6.49098e-08 0.0534229 52.0569 53.2015 
1085 0.5822 0.5822 0 6.03322e-06 6.03322e-06 -7.96348e-08 0.0534945 51.0538 52.8248 
1125 0.586 0.586 0 6.14975e-06 6.14975e-06 -2.31978e-08 0.0541927 51.7615 53.4512 
1165 0.6126 0.6126 0 6.38906e-06 6.38906e-06 2.17559e-09 0.0560842 53.5398 55.557 
1205 0.599 0.599 0 6.17919e-06 6.17919e-06 -5.59989e-09 0.0546117 51.932 53.6932 
1245 0.6254 0.6254 0 6.27448e-06 6.27448e-06 -2.90652e-08 0.0569193 52.421 54.3431 
6 0.006 0.006 0 1.01004e-07 1.01004e-07 2.66532e-09 0.41036 363.347 371.259 
46 5.8524 5.8524 0 0.000118895 0.000118895 -1.4765e-07 1.18515 596.091 607.906 
86 5.9162 5.9162 0 0.000118007 0.000118007 4.67488e-09 1.17629 587.869 601.432 
126 5.9476 5.9476 0 0.000118599 0.000118599 -3.42904e-08 1.1822 592.554 607.487 
166 5.8986 5.8986 0 0.000117226 0.000117226 -2.07969e-07 1.16851 582.695 595.985 
206 5.92 5.92 0 0.000117345 0.000117345 1.58705e-07 1.16969 583.159 597.173 
246 5.9042 5.9042 0 0.000118179 0.000118179 -6.87115e-08 1.17801 591.22 604.943 
286 5.8416 5.8416 0 0.000118529 0.000118529 -7.44752e-08 1.1815 593.893 606.753 
326 0.0044 0.0044 0 7.13081e-08 7.13081e-08 2.89516e-09 0.284357 251.331 261.252 
366 0.61 0.61 0 6.1708e-06 6.1708e-06 -2.88797e-08 0.0560443 51.6424 53.606 
406 0.5898 0.5898 0 6.14468e-06 6.14468e-06 4.36672e-08 0.0545456 51.0244 52.5987 
446 0.5868 0.5868 0 6.00905e-06 6.00905e-06 -6.80231e-08 0.0541794 49.5304 51.4374 
486 0.5898 0.5898 0 6.18143e-06 6.18143e-06 -4.99873e-08 0.0539395 51.3359 52.8082 
526 0.5868 0.5868 0 6.33973e-06 6.33973e-06 4.8465e-08 0.0551136 53.1532 54.5078 
566 0.5982 0.5982 0 6.50764e-06 6.50764e-06 -1.12167e-07 0.0554812 54.9694 56.5074 
606 0.5636 0.5636 0 6.13167e-06 6.13167e-06 -2.30291e-08 0.0515447 51.1881 52.9814 
646 0 0 0 0 0 0 0 0 0 
686 0.0006 0.0006 0 -2.45314e-09 -2.45314e-09 -1.52209e-09 2.44529e-05 0.0128971 0.0218923 
726 0.0002 0.0002 0 -3.62481e-10 -3.62481e-10 0 3.61321e-06 0 0 
766 0.0006 0.0006 0 -4.6109e-09 -4.6109e-09 -2.35696e-09 4.59614e-05 0.00520385 0.0114107 
806 0.0014 0.0014 0 -7.45165e-09 -7.45165e-09 -2.54416e-09 7.4278e-05 0.0256107 0.0146623 
846 0.001 0.001 0 -4.51162e-09 -4.51162e-09 1.48677e-09 4.49718e-05 0.0249657 0.0444402 
886 0.0006 0.0006 0 -3.89039e-09 -3.89039e-09 -8.3651e-10 3.87794e-05 0.0237558 0.0196889 
926 0 0 0 0 0 0 0 0 0 
966 0.5538 0.5538 0 6.22832e-06 6.22832e-06 1.57026e-08 0.0508943 52.3176 53.3539 
1006 0.5812 0.5812 0 6.27161e-06 6.27161e-06 9.82558e-08 0.0543094 52.9145 54.1973 
1046 0.5664 0.5664 0 6.02642e-06 6.02642e-06 1.15754e-08 0.0524478 49.2569 50.5225 
1086 0.5938 0.5938 0 6.23551e-06 6.23551e-06 -3.57895e-09 0.0547549 52.7481 54.7503 
1126 0.5868 0.5868 0 6.18673e-06 6.18673e-06 -5.18654e-08 0.0535082 52.0211 53.7824 
1166 0.5814 0.5814 0 6.06105e-06 6.06105e-06 -1.31434e-08 0.0539297 51.6088 53.2687 
1206 0.5922 0.5922 0 6.019e-06 6.019e-06 -2.61784e-08 0.0542723 50.174 51.8468 
1246 0.6524 0.6524 0 6.54812e-06 6.54812e-06 -1.32569e-07 0.060136 55.1951 57.1629 
7 0.0058 0.0058 0 1.07786e-07 1.07786e-07 4.35964e-09 0.424403 388.903 397.132 
47 5.9178 5.9178 0 0.000120193 0.000120193 7.87704e-08 1.19808 601.377 613.437 
87 5.8784 5.8784 0 0.000117744 0.000117744 -3.50144e-09 1.17367 584.182 598.404 
127 5.8562 5.8562 0 0.000116302 0.000116302 -2.86689e-08 1.1593 581.379 594.303 
167 5.9128 5.9128 0 0.000117093 0.000117093 2.29735e-07 1.16718 581.902 594.856 
207 5.8922 5.8922 0 0.000117273 0.000117273 1.58812e-07 1.16898 582.815 596.668 
247 5.9048 5.9048 0 0.000117751 0.000117751 1.62637e-07 1.17374 584.408 597.537 
287 5.9842 5.9842 0 0.000121261 0.000121261 1.55762e-07 1.20873 607.772 620.129 
327 0.0062 0.0062 0 9.75144e-08 9.75144e-08 -2.86407e-09 0.383313 328.347 320.465 
367 0.6332 0.6332 0 6.40191e-06 6.40191e-06 -3.79029e-08 0.0591787 52.7619 54.2964 
407 0.5932 0.5932 0 6.12563e-06 6.12563e-06 -2.04697e-08 0.0553455 51.3892 53.2128 
447 0.597 0.597 0 6.14769e-06 6.14769e-06 2.13563e-08 0.0548754 51.3389 52.7781 
487 0.597 0.597 0 6.26818e-06 6.26818e-06 7.19327e-09 0.0548532 51.9222 53.6327 
527 0.58 0.58 0 6.23522e-06 6.23522e-06 2.90686e-08 0.0525061 51.5721 52.8802 
567 0.5716 0.5716 0 6.28766e-06 6.28766e-06 4.2638e-08 0.0513487 52.0125 53.0285 
607 0.56 0.56 0 6.02474e-06 6.02474e-06 -2.26905e-08 0.0509873 50.1683 51.8431 
647 0.0008 0.0008 0 -6.77191e-09 -6.77191e-09 6.46554e-10 6.75024e-05 0.00164488 0.0117508 
687 0.0008 0.0008 0 -3.6994e-09 -3.6994e-09 1.61436e-09 3.68756e-05 0.0236356 0.0225004 
727 0.0004 0.0004 0 -2.11479e-09 -2.11479e-09 -1.2363e-09 2.10802e-05 -0.00757274 -0.00745911 
767 0.0008 0.0008 0 -6.02259e-09 -6.02259e-09 -1.29838e-09 6.00332e-05 0.024427 0.0222678 
807 0.0004 0.0004 0 -3.40064e-09 -3.40064e-09 3.34528e-10 3.38975e-05 0.0202588 0.0182761 
847 0.0004 0.0004 0 -1.69615e-09 -1.69615e-09 -2.37176e-10 1.69073e-05 0.00187005 -0.00155949 
887 0.0006 0.0006 0 -2.16982e-09 -2.16982e-09 1.43802e-09 2.16288e-05 0.00407976 0.029964 
927 0.0008 0.0008 0 -3.73329e-09 -3.73329e-09 4.01519e-09 3.72134e-05 0.0142372 0.0194874 
967 0.554 0.554 0 6.07963e-06 6.07963e-06 -6.59432e-08 0.0512412 51.2688 52.8364 
1007 0.579 0.579 0 6.15181e-06 6.15181e-06 4.25027e-08 0.0536569 51.7076 52.9857 
1047 0.5816 0.5816 0 6.27071e-06 6.27071e-06 -6.99591e-08 0.0531513 52.0825 53.4452 
1087 0.573 0.573 0 6.00929e-06 6.00929e-06 2.6485e-08 0.0519687 49.8349 51.4627 
1127 0.5906 0.5906 0 6.0995e-06 6.0995e-06 -1.51322e-08 0.0540267 51.5849 53.4055 
1167 0.601 0.601 0 6.13328e-06 6.13328e-06 4.53243e-08 0.0560938 51.7228 53.2766 
1207 0.6082 0.6082 0 6.36755e-06 6.36755e-06 9.84091e-08 0.0556204 52.8949 54.4617 
1247 0.6214 0.6214 0 6.25142e-06 6.25142e-06 6.19779e-08 0.0576802 52.8618 54.7662 
8 0.0048 0.0048 0 7.71524e-08 7.71524e-08 3.50342e-09 0.438343 186.637 180.788 
48 5.8716 5.8716 0 0.000119051 0.000119051 -1.16539e-07 1.1867 596.449 609.354 
88 5.8712 5.8712 0 0.000117851 0.000117851 3.03044e-07 1.17474 581.224 594.21 
128 5.923 5.923 0 0.000117728 0.000117728 -2.92485e-07 1.17351 587.786 601.132 
168 5.9034 5.9034 0 0.000116465 0.000116465 9.39665e-08 1.16092 585.496 600.519 
208 5.903 5.903 0 0.000117082 0.000117082 4.20202e-08 1.16707 581.784 595.596 
248 5.9184 5.9184 0 0.000118559 0.000118559 -2.71054e-07 1.1818 588.515 601.045 
288 5.8926 5.8926 0 0.000118756 0.000118756 -9.63327e-08 1.18376 600.235 611.995 
328 0.0038 0.0038 0 5.8767e-08 5.8767e-08 3.19773e-09 0.266148 194.847 188.725 
368 0.6034 0.6034 0 6.07446e-06 6.07446e-06 -9.07342e-08 0.056211 51.3332 52.94 
408 0.611 0.611 0 6.37676e-06 6.37676e-06 -4.64805e-08 0.056511 53.0478 54.9526 
448 0.5876 0.5876 0 6.20436e-06 6.20436e-06 1.03731e-07 0.0541985 52.4588 54.2801 
488 0.5766 0.5766 0 6.11516e-06 6.11516e-06 6.77976e-08 0.053469 50.3623 51.9316 
528 0.5682 0.5682 0 6.14544e-06 6.14544e-06 1.07912e-08 0.0520508 51.9335 53.4219 
568 0.5846 0.5846 0 6.35114e-06 6.35114e-06 2.66876e-08 0.0544816 54.0354 55.515 
608 0.5634 0.5634 0 6.13377e-06 6.13377e-06 6.11012e-09 0.0516678 51.6107 53.199 
648 0.0006 0.0006 0 -3.61625e-09 -3.61625e-09 -1.69559e-09 3.60468e-05 0.0180694 0.0346303 
688 0.0006 0.0006 0 -2.86782e-09 -2.86782e-09 -3.6281e-10 2.85864e-05 -0.00121484 0.00487515 
728 0.0004 0.0004 0 -1.95025e-09 -1.95025e-09 7.34206e-10 1.94401e-05 -0.00376325 0.00276064 
768 0.0006 0.0006 0 -3.29076e-09 -3.29076e-09 5.42409e-11 3.28023e-05 0.0120583 0.0118967 
808 0.0004 0.0004 0 -1.81929e-09 -1.81929e-09 2.0783e-09 1.81347e-05 0.00534164 0.00492476 
848 0.0004 0.0004 0 -1.64815e-09 -1.64815e-09 -1.2426e-09 1.64287e-05 0.00144558 0.000975818 
888 0.001 0.001 0 -5.73139e-09 -5.73139e-09 -6.27626e-10 5.71304e-05 0.000851294 0.00805765 
928 0.0022 0.0022 0 -1.29966e-08 -1.29966e-08 -1.97777e-09 0.00012955 0.0327376 0.0397893 
968 0.5668 0.5668 0 6.14064e-06 6.14064e-06 7.71291e-08 0.0522993 51.9497 53.1491 
1008 0.5722 0.5722 0 6.12876e-06 6.12876e-06 6.47063e-09 0.052355 50.7649 52.3057 
1048 0.5812 0.5812 0 6.30178e-06 6.30178e-06 9.04163e-08 0.0534477 52.7936 54.5708 
1088 0.601 0.601 0 6.5044e-06 6.5044e-06 -4.7028e-08 0.054682 54.2768 55.73 
1128 0.5928 0.5928 0 6.12904e-06 6.12904e-06 -1.544e-08 0.0552219 52.5242 54.029 
1168 0.578 0.578 0 5.97139e-06 5.97139e-06 6.04066e-08 0.0534265 49.9284 51.5316 
1208 0.6084 0.6084 0 6.32656e-06 6.32656e-06 -1.07294e-08 0.0559283 53.142 54.6678 
1248 0.6294 0.6294 0 6.44641e-06 6.44641e-06 8.81315e-09 0.0581926 54.7286 56.7641 
9 0.0076 0.0076 0 1.40021e-07 1.40021e-07 -1.8862e-09 0.660966 445.89 452.884 
49 5.902 5.902 0 0.000119169 0.000119169 1.62208e-07 1.18788 598.234 610.697 
89 5.9154 5.9154 0 0.000117975 0.000117975 2.90355e-08 1.17598 583.046 596.441 
129 5.924 5.924 0 0.000117562 0.000117562 -4.24384e-08 1.17186 582.07 595.535 
169 5.9124 5.9124 0 0.000117233 0.000117233 -3.65231e-08 1.16858 581.051 593.177 
209 5.9002 5.9002 0 0.000117272 0.000117272 -2.66418e-07 1.16897 586.008 598.905 
249 5.896 5.896 0 0.000118052 0.000118052 -9.32026e-08 1.17674 582.447 595.01 
289 5.942 5.942 0 0.000120117 0.000120117 6.8892e-10 1.19732 601.459 613.023 
329 0.0026 0.0026 0 3.25269e-08 3.25269e-08 2.7477e-09 0.141175 133.585 126.417 
369 0.6032 0.6032 0 6.20372e-06 6.20372e-06 5.11018e-08 0.056368 52.0547 53.747 
409 0.6114 0.6114 0 6.4433e-06 6.4433e-06 -5.48094e-09 0.0562084 53.8482 55.7258 
449 0.5918 0.5918 0 6.02791e-06 6.02791e-06 1.50011e-08 0.0542445 50.5768 52.5226 
489 0.5698 0.5698 0 6.04894e-06 6.04894e-06 2.0307e-08 0.0515408 49.7718 51.2157 
529 0.5854 0.5854 0 6.30037e-06 6.30037e-06 -7.65334e-08 0.0539102 52.5039 54.0233 
569 0.5826 0.5826 0 6.45024e-06 6.45024e-06 -6.25324e-09 0.0536416 53.9846 55.3305 
609 0.5742 0.5742 0 6.14536e-06 6.14536e-06 9.1031e-08 0.0529006 52.0098 53.3017 
649 0.0012 0.0012 0 -5.61123e-09 -5.61123e-09 1.87748e-09 5.59327e-05 0.00694884 0.00748389 
689 0.0004 0.0004 0 -2.36238e-09 -2.36238e-09 2.08665e-09 2.35482e-05 0.00761005 0.0122579 
729 0.0004 0.0004 0 -1.74609e-09 -1.74609e-09 9.7673e-10 1.7405e-05 0.00622 0.00502639 
769 0.0002 0.0002 0 -1.88226e-09 -1.88226e-09 6.05315e-10 1.87623e-05 0.00591227 0.00638007 
809 0.0004 0.0004 0 -2.9684e-09 -2.9684e-09 1.13521e-09 2.9589e-05 0.0171959 0.0205358 
849 0.0006 0.0006 0 -3.45467e-09 -3.45467e-09 -2.4412e-10 3.44362e-05 -0.00659639 -0.00358355 
889 0.0012 0.0012 0 -7.86058e-09 -7.86058e-09 1.58632e-09 7.83542e-05 0.0111107 0.0223232 
929 0.0012 0.0012 0 -7.9212e-09 -7.9212e-09 5.44809e-09 7.89585e-05 0.0143709 0.0271529 
969 0.5758 0.5758 0 6.32147e-06 6.32147e-06 1.8254e-08 0.0535542 52.8183 54.3672 
1009 0.5538 0.5538 0 5.97721e-06 5.97721e-06 -6.28225e-08 0.0511524 49.6299 51.192 
1049 0.5562 0.5562 0 6.04002e-06 6.04002e-06 -8.25297e-08 0.0506763 50.2052 51.8563 
1089 0.5698 0.5698 0 5.91812e-06 5.91812e-06 -3.5505e-08 0.0525609 49.6819 51.1848 
1129 0.5722 0.5722 0 6.15126e-06 6.15126e-06 -6.34815e-08 0.052243 51.4656 53.2519 
1169 0.6016 0.6016 0 6.24099e-06 6.24099e-06 6.15517e-09 0.0556194 51.4042 52.8647 
1209 0.6016 0.6016 0 6.17663e-06 6.17663e-06 -4.72185e-08 0.0561098 52.0275 53.532 
1249 0.6298 0.6298 0 6.15743e-06 6.15743e-06 4.5727e-08 0.05771 52.5848 54.3379 
10 0.0062 0.0062 0 1.17008e-07 1.17008e-07 -1.49617e-08 0.564401 331.866 340.263 
50 5.9384 5.9384 0 0.000119728 0.000119728 2.40137e-08 1.19345 603.507 616.087 
90 5.873 5.873 0 0.000117467 0.000117467 1.26631e-07 1.17091 584.756 597.597 
130 5.9204 5.9204 0 0.000117527 0.000117527 -1.57512e-07 1.17151 587.08 601.297 
170 5.9146 5.9146 0 0.000116956 0.000116956 7.47595e-08 1.16581 581.215 595.518 
210 5.8768 5.8768 0 0.000116544 0.000116544 2.28282e-07 1.16171 581.43 595.526 
250 5.9448 5.9448 0 0.000118726 0.000118726 -1.9308e-07 1.18346 594.607 608.089 
290 5.8656 5.8656 0 0.000118876 0.000118876 2.95437e-07 1.18495 592.833 605.834 
330 0.0014 0.0014 0 2.0627e-08 2.0627e-08 -1.80715e-09 0.0812944 80.5036 74.1016 
370 0.6032 0.6032 0 6.07616e-06 6.07616e-06 7.03297e-09 0.0551608 50.0514 51.8461 
410 0.587 0.587 0 6.01084e-06 6.01084e-06 -4.33382e-08 0.0533096 51.0176 52.469 
450 0.5834 0.5834 0 6.10619e-06 6.10619e-06 5.2448e-09 0.0537965 50.971 52.189 
490 0.573 0.573 0 6.24025e-06 6.24025e-06 1.27708e-08 0.0522505 52.1937 53.8245 
530 0.5656 0.5656 0 6.12464e-06 6.12464e-06 -4.19767e-09 0.0515782 51.1598 52.7666 
570 0.5692 0.5692 0 6.16395e-06 6.16395e-06 -1.12411e-08 0.0523908 51.2607 52.5377 
610 0.5556 0.5556 0 6.08336e-06 6.08336e-06 -5.5077e-08 0.0510972 50.4137 52.1231 
650 0.0004 0.0004 0 -2.1403e-09 -2.1403e-09 5.78396e-10 2.13345e-05 0.0205376 0.0233688 
690 0.001 0.001 0 -5.97181e-09 -5.97181e-09 2.15194e-09 5.9527e-05 -0.0138808 -0.00549474 
730 0.0004 0.0004 0 -2.63613e-09 -2.63613e-09 9.33692e-10 2.62769e-05 0.0119969 0.0135789 
770 0.0002 0.0002 0 -1.29508e-09 -1.29508e-09 2.65525e-10 1.29094e-05 -0.00325872 -0.00209687 
810 0.0006 0.0006 0 -2.58687e-09 -2.58687e-09 2.50318e-10 2.57859e-05 0.00966618 0.00629683 
850 0.0002 0.0002 0 -1.50706e-09 -1.50706e-09 2.14156e-10 1.50224e-05 0.00464091 0.000701404 
890 0.0002 0.0002 0 -5.11958e-11 -5.11958e-11 0 5.10319e-07 0 0 
930 0.001 0.001 0 -6.66079e-09 -6.66079e-09 2.12178e-09 6.63947e-05 0.0257053 0.0317368 
970 0.5554 0.5554 0 6.15843e-06 6.15843e-06 1.29931e-08 0.0505063 51.0658 52.6457 
1010 0.588 0.588 0 6.33369e-06 6.33369e-06 -3.61129e-09 0.0538042 52.7139 54.6276 
1050 0.5644 0.5644 0 6.07029e-06 6.07029e-06 -7.61919e-08 0.0515126 50.6548 51.9742 
1090 0.5794 0.5794 0 6.0135e-06 6.0135e-06 8.74667e-08 0.0534561 50.9395 52.6676 
1130 0.5852 0.5852 0 6.16512e-06 6.16512e-06 2.22288e-08 0.0537706 51.9983 53.5445 
1170 0.5868 0.5868 0 6.19571e-06 6.19571e-06 7.30324e-08 0.0540156 51.9768 53.7647 
1210 0.6174 0.6174 0 6.28198e-06 6.28198e-06 1.08745e-07 0.055982 52.8664 54.6202 
1250 0.6166 0.6166 0 6.25965e-06 6.25965e-06 -1.26549e-07 0.0563319 51.5778 53.7027 
11 0.0094 0.0094 0 1.81167e-07 1.81167e-07 -1.08176e-09 0.850238 605.753 623.055 
51 5.8682 5.8682 0 0.000118484 0.000118484 7.29812e-08 1.18105 593.288 605.281 
91 5.9446 5.9446 0 0.000118643 0.000118643 -2.88436e-08 1.18264 597.484 612.553 
131 5.8784 5.8784 0 0.000116307 0.000116307 2.17199e-07 1.15935 576.95 590.264 
171 5.8804 5.8804 0 0.000116739 0.000116739 -4.29144e-08 1.16366 582.623 597.961 
211 5.9184 5.9184 0 0.000117714 0.000117714 -6.46915e-10 1.17337 584.359 597.353 
251 5.847 5.847 0 0.000117018 0.000117018 4.14473e-07 1.16643 582.252 595.61 
291 5.764 5.764 0 0.000116961 0.000116961 -7.87857e-08 1.16587 586.955 598.128 
331 0.0014 0.0014 0 2.34614e-08 2.34614e-08 3.70392e-09 0.0596798 109.614 105.53 
371 0.6122 0.6122 0 6.33158e-06 6.33158e-06 2.29007e-08 0.0561617 53.5419 55.6246 
411 0.5956 0.5956 0 6.18621e-06 6.18621e-06 -6.19655e-09 0.0549497 51.8559 53.1183 
451 0.5872 0.5872 0 6.1003e-06 6.1003e-06 1.12891e-07 0.0540162 50.9848 52.5733 
491 0.5642 0.5642 0 5.94488e-06 5.94488e-06 7.95092e-09 0.0520046 50.5684 52.2634 
531 0.5552 0.5552 0 5.97692e-06 5.97692e-06 -3.66054e-08 0.0505218 49.4813 51.1854 
571 0.5628 0.5628 0 6.01757e-06 6.01757e-06 -1.04467e-07 0.0520479 51.1879 52.4105 
611 0.5524 0.5524 0 5.88336e-06 5.88336e-06 -2.58793e-08 0.050839 49.3236 50.8287 
651 0.0006 0.0006 0 -3.44163e-09 -3.44163e-09 -3.94819e-09 3.43062e-05 0.00960192 0.0201415 
691 0.0006 0.0006 0 -3.29184e-09 -3.29184e-09 -8.2816e-10 3.28131e-05 0.00535912 0.0100651 
731 0.001 0.001 0 -5.57582e-09 -5.57582e-09 2.09192e-09 5.55798e-05 0.0232512 0.0457874 
771 0.0012 0.0012 0 -7.18168e-09 -7.18168e-09 5.43716e-09 7.15869e-05 0.0182318 0.0315216 
811 0.0004 0.0004 0 -2.43829e-09 -2.43829e-09 1.92814e-09 2.43049e-05 -0.00262873 -0.00618119 
851 0.0004 0.0004 0 -2.03783e-09 -2.03783e-09 4.33196e-10 2.03131e-05 -0.00419327 -0.00122464 
891 0.0004 0.0004 0 -2.10203e-09 -2.10203e-09 -1.11531e-09 2.0953e-05 0.00558142 0.0150521 
931 0.0006 0.0006 0 -4.16584e-09 -4.16584e-09 -9.17431e-10 4.15251e-05 0.00393647 0.00409088 
971 0.5546 0.5546 0 6.07863e-06 6.07863e-06 1.23242e-08 0.0509026 51.2741 52.4014 
1011 0.5666 0.5666 0 6.25495e-06 6.25495e-06 -1.79204e-08 0.0520731 51.9122 53.0402 
1051 0.5678 0.5678 0 6.05803e-06 6.05803e-06 4.83271e-08 0.0523406 50.7558 52.397 
1091 0.5962 0.5962 0 6.29882e-06 6.29882e-06 1.77285e-08 0.0541941 52.4481 54.2478 
1131 0.5978 0.5978 0 6.3508e-06 6.3508e-06 -7.48904e-08 0.0546443 52.6334 54.5935 
1171 0.604 0.604 0 6.1728e-06 6.1728e-06 -3.40201e-09 0.0559556 51.2757 52.9839 
1211 0.6194 0.6194 0 6.46147e-06 6.46147e-06 -6.55583e-10 0.0565074 54.6154 56.2275 
1251 0.6146 0.6146 0 6.03732e-06 6.03732e-06 -1.63755e-08 0.0577249 50.2724 52.4834 
12 0.0096 0.0096 0 1.91875e-07 1.91875e-07 5.62979e-09 0.929975 521.594 534.618 
52 5.9066 5.9066 0 0.000119332 0.000119332 1.4352e-08 1.1895 596.865 609.039 
92 5.8566 5.8566 0 0.000116863 0.000116863 3.93398e-07 1.16489 581.507 595.022 
132 6.0116 6.0116 0 0.000119052 0.000119052 -2.49549e-07 1.18671 588.89 603.5 
172 5.8646 5.8646 0 0.000116417 0.000116417 -5.51149e-09 1.16044 577.545 591.53 
212 5.8558 5.8558 0 0.000116667 0.000116667 3.33826e-07 1.16294 581.574 595.47 
252 5.8444 5.8444 0 0.000116934 0.000116934 -6.29556e-08 1.1656 583.433 596.869 
292 5.855 5.855 0 0.000119245 0.000119245 -1.29375e-07 1.18863 596.338 608.499 
332 0.658 0.658 0 6.54299e-06 6.54299e-06 2.38497e-08 0.0604878 54.7689 57.0501 