ITEM: TIMESTEP
20000
ITEM: NUMBER OF SURFS
1272
ITEM: BOX BOUNDS oo rr pp
0 0.3
0 0.3
-0.5 0.5
ITEM: SURFS id f_4[1] f_4[2] f_4[3] f_4[4] f_4[5] f_4[6] f_4[7] f_4[8] f_4[9] 
1 0.0614 0.0614 0 0.000136499 0.000136499 -7.55174e-06 24.4192 3562.02 6288.31 
41 9.0616 9.0616 0 0.0383619 0.0383619 7.21036e-05 383.619 30078.6 42088.4 
81 10.2134 10.2134 0 0.0424882 0.0424882 0.000119515 424.882 27561.5 38320.2 
121 10.5732 10.5732 0 0.0439417 0.0439417 -6.07572e-05 439.417 26695.9 36933.3 
161 10.7274 10.7274 0 0.0442787 0.0442787 -4.34908e-05 442.787 25932.4 36499.1 
201 10.6008 10.6008 0 0.0438265 0.0438265 1.71674e-05 438.265 26590.7 36409.2 
241 10.3072 10.3072 0 0.0427832 0.0427832 -9.78745e-05 427.832 27560.5 37931.4 
281 9.5162 9.5162 0 0.0398409 0.0398409 1.3373e-05 398.409 28153.6 39527.9 
321 0.3892 0.3892 0 0.00182475 0.00182475 -7.63663e-06 177.279 30822.5 42887.5 
361 0.6212 0.6212 0 0.000813746 0.000813746 -1.69094e-05 27.0213 4512.08 6027.66 
401 0.759 0.759 0 0.000852564 0.000852564 -6.61206e-06 34.0506 5514.09 7318.8 
441 0.856 0.856 0 0.000786571 0.000786571 7.10804e-06 38.4082 5658.63 7528.46 
481 0.869 0.869 0 0.000725104 0.000725104 2.87332e-05 38.8006 5430.18 7222.96 
521 0.9318 0.9318 0 0.000627659 0.000627659 -3.09034e-05 40.4455 4898.6 6913.47 
561 0.8912 0.8912 0 0.000611271 0.000611271 2.44268e-05 38.6821 4772.2 6639.37 
601 0.8466 0.8466 0 0.000628177 0.000628177 4.38382e-06 37.3832 4649.96 6385.17 
641 0.023 0.023 0 -2.43973e-06 -2.43973e-06 1.51081e-07 9.30045 1924.64 2375.95 
681 0.0978 0.0978 0 -0.00038691 -0.00038691 4.0187e-06 3.8691 265.374 408.128 
721 0.1392 0.1392 0 -0.000584872 -0.000584872 -1.14777e-07 5.84872 706.06 992.013 
761 0.1678 0.1678 0 -0.000739064 -0.000739064 -1.88169e-05 7.39064 734.207 996.76 
801 0.2078 0.2078 0 -0.000923928 -0.000923928 -7.04961e-06 9.23928 941.623 1338.12 
841 0.1736 0.1736 0 -0.000754489 -0.000754489 7.03279e-07 7.54489 546.362 750.265 
881 0.146 0.146 0 -0.00061656 -0.00061656 -1.31263e-05 6.1656 453.078 699.218 
921 0.0954 0.0954 0 -0.000382406 -0.000382406 1.52057e-05 3.82406 286.751 437.228 
961 0.0164 0.0164 0 -2.23586e-05 -2.23586e-05 -1.14248e-06 6.12669 950.553 1454.06 
1001 0.8444 0.8444 0 0.000657783 0.000657783 -2.44613e-05 37.0479 4511.36 6186.46 
1041 0.8854 0.8854 0 0.000596229 0.000596229 1.93881e-05 39.0133 4731.44 6669.66 
1081 0.9144 0.9144 0 0.000644736 0.000644736 -1.60788e-05 40.3069 4719.86 6573.84 
1121 0.9006 0.9006 0 0.00064715 0.00064715 -2.01111e-05 39.6312 5149.13 7054.09 
1161 0.823 0.823 0 0.000701117 0.000701117 2.79032e-05 35.9899 5088.55 6779.7 
1201 0.746 0.746 0 0.000766736 0.000766736 4.20044e-05 33.436 5276.55 6980.97 
1241 0.63 0.63 0 0.000865653 0.000865653 -5.08323e-05 27.5333 5000.61 6540.37 
2 0.0736 0.0736 0 0.000202338 0.000202338 -6.15974e-06 28.5879 4874.03 7090.26 
42 9.132 9.132 0 0.0386342 0.0386342 -3.8728e-06 386.342 30226.6 42351.8 
82 10.0958 10.0958 0 0.0420489 0.0420489 4.44815e-05 420.489 26617.1 37452.7 
122 10.5248 10.5248 0 0.0435557 0.0435557 -2.12082e-08 435.557 26210.2 36649.6 
162 10.6396 10.6396 0 0.0439738 0.0439738 -4.45134e-06 439.738 25808.1 36103.3 
202 10.6628 10.6628 0 0.044172 0.044172 0.000131126 441.72 26290 36081.5 
242 10.274 10.274 0 0.0427924 0.0427924 1.215e-05 427.924 27171.4 37849.7 
282 9.5644 9.5644 0 0.040019 0.040019 5.84406e-05 400.19 29020.3 39970.7 
322 0.3746 0.3746 0 0.00171211 0.00171211 2.14911e-06 166.892 27080.6 37049.9 
362 0.6358 0.6358 0 0.000834099 0.000834099 6.5977e-06 27.9718 4816.81 6405.15 
402 0.7594 0.7594 0 0.000817656 0.000817656 -1.60616e-05 34.1032 5345.48 7027.71 
442 0.818 0.818 0 0.000739083 0.000739083 -4.98081e-05 36.9696 5333.83 7091.1 
482 0.8854 0.8854 0 0.000705483 0.000705483 -5.1313e-06 39.4982 4937 6831.81 
522 0.8988 0.8988 0 0.00062753 0.00062753 3.94814e-06 39.5523 4825.14 6719.32 
562 0.9144 0.9144 0 0.000617214 0.000617214 -2.60772e-05 39.7166 4554.2 6423.47 
602 0.8552 0.8552 0 0.000656162 0.000656162 -3.20796e-06 37.5988 4261.75 5876.35 
642 0.0232 0.0232 0 -2.29067e-05 -2.29067e-05 -5.0135e-06 9.62491 1258.49 1771 
682 0.0854 0.0854 0 -0.000345391 -0.000345391 2.52437e-06 3.45391 301.379 421.486 
722 0.1578 0.1578 0 -0.000670746 -0.000670746 8.03954e-06 6.70746 574.858 841.932 
762 0.1878 0.1878 0 -0.000805538 -0.000805538 -1.02072e-05 8.05538 707.442 1043.51 
802 0.191 0.191 0 -0.000829003 -0.000829003 -1.16465e-06 8.29003 788.324 1159.23 
842 0.1886 0.1886 0 -0.000812173 -0.000812173 -6.69322e-06 8.12173 711.069 1010.85 
882 0.1442 0.1442 0 -0.000617639 -0.000617639 1.13015e-06 6.17639 594.122 873.799 
922 0.0996 0.0996 0 -0.00038972 -0.00038972 -9.44048e-06 3.8972 341.183 507.973 
962 0.0182 0.0182 0 -2.08721e-05 -2.08721e-05 -1.34091e-06 7.34649 978.242 1620.61 
1002 0.8246 0.8246 0 0.000618207 0.000618207 4.22397e-05 36.121 4434.15 6194.52 
1042 0.8768 0.8768 0 0.000624332 0.000624332 5.02801e-06 38.2375 4358.8 6117.5 
1082 0.8978 0.8978 0 0.000686333 0.000686333 -2.58502e-05 39.3787 4986.43 6760.97 
1122 0.8754 0.8754 0 0.000650565 0.000650565 3.78484e-05 38.9587 5204.57 7094.9 
1162 0.8254 0.8254 0 0.000732904 0.000732904 1.74522e-05 36.4384 5121.53 6814.04 
1202 0.7476 0.7476 0 0.000771387 0.000771387 -1.03858e-05 33.347 5160.91 6922.3 
1242 0.6414 0.6414 0 0.00087719 0.00087719 8.36641e-07 27.6988 4562.28 6174.95 
3 0.099 0.099 0 0.000313437 0.000313437 -1.10569e-05 41.3349 6865.48 11008.2 
43 9.1906 9.1906 0 0.0388862 0.0388862 -4.76225e-05 388.862 29982.2 41689.2 
83 10.2212 10.2212 0 0.0425235 0.0425235 -6.87156e-06 425.235 27073.4 37742.1 
123 10.465 10.465 0 0.0434026 0.0434026 0.00010816 434.026 26501 36646 
163 10.7374 10.7374 0 0.0444202 0.0444202 0.000158182 444.202 26215.3 36293 
203 10.5668 10.5668 0 0.0435245 0.0435245 2.85794e-05 435.245 25346.1 35380.5 
243 10.317 10.317 0 0.042939 0.042939 8.70443e-05 429.39 26976.9 37252.4 
283 9.4932 9.4932 0 0.0397487 0.0397487 8.88722e-05 397.487 28920.8 40129.6 
323 0.3236 0.3236 0 0.00147066 0.00147066 -2.59052e-05 146.052 24040.6 33702.3 
363 0.6334 0.6334 0 0.00085686 0.00085686 4.68676e-05 27.6859 4808.81 6235.55 
403 0.7716 0.7716 0 0.000797323 0.000797323 -2.1599e-05 34.3968 5192.91 7084.95 
443 0.8202 0.8202 0 0.00066887 0.00066887 2.63916e-06 36.6322 5306.47 7090.35 
483 0.8748 0.8748 0 0.000710913 0.000710913 -9.18763e-06 38.721 5353.9 7094.02 
523 0.9314 0.9314 0 0.000641309 0.000641309 -4.58598e-06 40.9611 5000.51 7051.79 
563 0.9006 0.9006 0 0.000647678 0.000647678 -2.09012e-05 39.0133 4596.21 6385.03 
603 0.8524 0.8524 0 0.000741373 0.000741373 2.18966e-05 37.4139 4905.98 6564.19 
643 0.0138 0.0138 0 -1.70027e-05 -1.70027e-05 3.9192e-06 5.58952 907.151 1245.75 
683 0.0888 0.0888 0 -0.000362034 -0.000362034 5.24276e-06 3.62034 260.429 396.314 
723 0.1474 0.1474 0 -0.00062963 -0.00062963 -6.75627e-06 6.2963 595.796 885.418 
763 0.1864 0.1864 0 -0.000792931 -0.000792931 -4.06619e-06 7.92931 554.3 790.156 
803 0.1932 0.1932 0 -0.000847302 -0.000847302 5.65066e-06 8.47302 786.677 1093.07 
843 0.1834 0.1834 0 -0.00078739 -0.00078739 7.85623e-06 7.8739 623.892 884.17 
883 0.1538 0.1538 0 -0.000649685 -0.000649685 1.10686e-06 6.49685 612.795 891.018 
923 0.0866 0.0866 0 -0.000346239 -0.000346239 4.22438e-06 3.46239 316.323 482.152 
963 0.0206 0.0206 0 -1.41283e-05 -1.41283e-05 -3.90709e-06 7.88403 992.238 1406.94 
1003 0.8356 0.8356 0 0.000673205 0.000673205 2.96536e-05 36.9126 4517.31 6176.91 
1043 0.9122 0.9122 0 0.000592589 0.000592589 -1.56866e-05 39.9734 4612.11 6421.88 
1083 0.8742 0.8742 0 0.000697935 0.000697935 2.85247e-06 38.2184 5099.74 6752.79 
1123 0.8772 0.8772 0 0.000718454 0.000718454 -3.42701e-05 38.8324 5119.58 7059.89 
1163 0.845 0.845 0 0.000736237 0.000736237 -2.32998e-06 37.2548 5462.42 7413.45 
1203 0.7284 0.7284 0 0.000773244 0.000773244 -1.18569e-05 32.6774 5074.26 6962.35 
1243 0.6188 0.6188 0 0.000821419 0.000821419 1.63734e-05 26.8276 4596.12 6115.02 
4 0.1132 0.1132 0 0.000374471 0.000374471 2.21485e-05 46.5969 7192.2 10330.7 
44 9.2856 9.2856 0 0.0391729 0.0391729 -8.90861e-05 391.729 29997 41877.1 
84 10.1628 10.1628 0 0.0423534 0.0423534 -2.87195e-05 423.534 27068.4 37805.3 
124 10.5814 10.5814 0 0.0438954 0.0438954 -5.1523e-05 438.954 26364 36717.4 
164 10.6434 10.6434 0 0.0440651 0.0440651 7.32318e-05 440.651 25318.2 35399.7 
204 10.6374 10.6374 0 0.0439003 0.0439003 -5.7476e-05 439.003 25626.3 35783.1 
244 10.2376 10.2376 0 0.0424555 0.0424555 -3.21802e-05 424.555 27473.7 37866.5 
284 9.425 9.425 0 0.0397337 0.0397337 -1.50975e-05 397.337 29124.7 41210 
324 0.2682 0.2682 0 0.00116708 0.00116708 3.10694e-06 117.211 19076 26916.7 
364 0.6466 0.6466 0 0.00094726 0.00094726 -3.77456e-05 28.159 5104.05 6704.76 
404 0.7582 0.7582 0 0.00080848 0.00080848 -1.36991e-05 33.9081 5226.37 6924.58 
444 0.8612 0.8612 0 0.000776369 0.000776369 1.38007e-05 38.3671 5745.22 7475.67 
484 0.8664 0.8664 0 0.000661506 0.000661506 -1.30215e-05 38.632 4918.44 6687.62 
524 0.88 0.88 0 0.000612062 0.000612062 -4.62153e-05 39.0791 4773.74 6601.15 
564 0.9326 0.9326 0 0.000657435 0.000657435 -4.15393e-07 40.799 4627.01 6559.31 
604 0.8228 0.8228 0 0.000744094 0.000744094 -2.73453e-05 36.2961 4491.17 6271.86 
644 0.0182 0.0182 0 -2.82887e-05 -2.82887e-05 7.83502e-06 6.53199 697.833 1151.54 
684 0.0906 0.0906 0 -0.000367629 -0.000367629 -9.41629e-06 3.67629 325.686 491.943 
724 0.1482 0.1482 0 -0.000633009 -0.000633009 2.83945e-06 6.33009 600.048 977.949 
764 0.1726 0.1726 0 -0.000732782 -0.000732782 5.48973e-06 7.32782 638.648 936.956 
804 0.1872 0.1872 0 -0.000842091 -0.000842091 6.47123e-07 8.42091 783.904 1077.17 
844 0.1792 0.1792 0 -0.000768291 -0.000768291 -3.83905e-06 7.68291 685.337 1028.71 
884 0.1356 0.1356 0 -0.000566608 -0.000566608 9.97151e-06 5.66608 490.915 734.101 
924 0.0846 0.0846 0 -0.000331361 -0.000331361 -2.15845e-05 3.31361 311.421 476.835 
964 0.0248 0.0248 0 -1.18206e-05 -1.18206e-05 2.0843e-06 10.3148 1874.78 2673.22 
1004 0.8298 0.8298 0 0.000675244 0.000675244 1.98179e-05 36.5013 4667.16 6280.13 
1044 0.8934 0.8934 0 0.000590974 0.000590974 -3.06423e-06 39.521 4827.84 6606.72 
1084 0.9272 0.9272 0 0.000591302 0.000591302 -1.86805e-05 41.0328 5091.65 6753.39 
1124 0.856 0.856 0 0.000722783 0.000722783 -2.21918e-05 37.8677 5039.76 6734.45 
1164 0.8276 0.8276 0 0.000706222 0.000706222 -4.55343e-05 36.4507 4961.56 6763.91 
1204 0.747 0.747 0 0.000730356 0.000730356 4.50633e-05 33.0126 5172.1 6846.04 
1244 0.6104 0.6104 0 0.000879294 0.000879294 2.42572e-05 26.6198 4546.36 6067.05 
5 0.1314 0.1314 0 0.000466124 0.000466124 3.29426e-06 55.4071 8648.05 12952.2 
45 9.252 9.252 0 0.0390601 0.0390601 -2.79482e-05 390.601 30041.3 42034.7 
85 10.1892 10.1892 0 0.0423493 0.0423493 2.29452e-05 423.493 27039 37466.1 
125 10.654 10.654 0 0.044117 0.044117 -7.23409e-05 441.17 25757.8 36099.7 
165 10.6894 10.6894 0 0.0442355 0.0442355 -9.72693e-05 442.355 26768.2 37294.3 
205 10.6296 10.6296 0 0.0439314 0.0439314 1.52539e-05 439.314 25883.7 35902.2 
245 10.3276 10.3276 0 0.0429604 0.0429604 4.92387e-05 429.604 27340.9 37834.5 
285 9.2672 9.2672 0 0.039252 0.039252 -1.48798e-05 392.52 29484.5 41176.3 
325 0.2262 0.2262 0 0.000960512 0.000960512 1.19667e-05 97.8036 17838.6 24308.9 
365 0.6248 0.6248 0 0.000868806 0.000868806 2.7999e-05 27.257 4933 6404.04 
405 0.7462 0.7462 0 0.000779605 0.000779605 -3.4721e-06 33.6733 5078.27 7015.47 
445 0.8432 0.8432 0 0.000761653 0.000761653 6.3731e-05 37.1549 5426.74 7382.12 
485 0.8906 0.8906 0 0.000720458 0.000720458 -1.12863e-05 39.6203 5342.96 7061.54 
525 0.9222 0.9222 0 0.000672771 0.000672771 -5.81671e-05 40.631 5006.68 7012.93 
565 0.9084 0.9084 0 0.000655061 0.000655061 4.1756e-05 39.7417 4792.89 6803.8 
605 0.8236 0.8236 0 0.000667508 0.000667508 5.35575e-05 36.2321 4371 5889.87 
645 0.0128 0.0128 0 -2.53238e-05 -2.53238e-05 -2.15636e-06 4.49767 277.578 578.934 
685 0.089 0.089 0 -0.000357651 -0.000357651 2.06835e-07 3.57651 261.028 447.277 
725 0.1436 0.1436 0 -0.000599021 -0.000599021 -6.16306e-06 5.99021 492.975 671.993 
765 0.1764 0.1764 0 -0.000771739 -0.000771739 -1.59172e-05 7.71739 717.538 1002.77 
805 0.1906 0.1906 0 -0.000836442 -0.000836442 8.69498e-06 8.36442 815.97 1080.81 
845 0.1826 0.1826 0 -0.000784742 -0.000784742 -1.71278e-05 7.84742 688.413 1078.6 
885 0.1428 0.1428 0 -0.00059081 -0.00059081 -1.6649e-07 5.9081 467.471 739.379 
925 0.0878 0.0878 0 -0.000342607 -0.000342607 -2.10434e-06 3.42607 329.619 502.549 
965 0.0286 0.0286 0 -2.74798e-07 -2.74798e-07 8.28102e-07 12.4445 2249.56 3102.7 
1005 0.8566 0.8566 0 0.000649039 0.000649039 -3.58082e-05 37.0008 4496.3 6079.2 
1045 0.9186 0.9186 0 0.000610977 0.000610977 3.37649e-05 40.0313 4852.59 6771.54 
1085 0.9184 0.9184 0 0.0006272 0.0006272 1.37382e-05 40.8191 5278.94 7236.66 
1125 0.856 0.856 0 0.000621932 0.000621932 2.2202e-05 37.4656 4734.57 6750.28 
1165 0.8108 0.8108 0 0.00074745 0.00074745 1.52186e-05 36.0274 5017.42 6926.06 
1205 0.7258 0.7258 0 0.000712547 0.000712547 -1.63158e-05 32.1124 5099.6 6856.52 
1245 0.623 0.623 0 0.000893181 0.000893181 1.76642e-06 27.1274 4571.91 6056.83 
6 0.1516 0.1516 0 0.000584143 0.000584143 -6.85591e-06 64.5264 11053.6 15557.8 
46 9.3098 9.3098 0 0.0393031 0.0393031 -4.0115e-05 393.031 29540.6 41167.3 
86 10.2048 10.2048 0 0.0423548 0.0423548 -2.68662e-06 423.548 26045.8 36676.2 
126 10.6212 10.6212 0 0.0439451 0.0439451 4.07611e-06 439.451 26834.2 37415.5 
166 10.6834 10.6834 0 0.0441114 0.0441114 3.83406e-05 441.114 26272.6 36721.3 
206 10.5872 10.5872 0 0.043807 0.043807 2.72632e-05 438.07 26342.7 36343.7 
246 10.2302 10.2302 0 0.0424282 0.0424282 -3.51816e-05 424.282 26854.5 37381.9 
286 9.3752 9.3752 0 0.0395343 0.0395343 5.10594e-05 395.343 29067.6 40590.7 
326 0.1978 0.1978 0 0.000814524 0.000814524 -4.65217e-06 84.8497 14579.4 20643.4 
366 0.6348 0.6348 0 0.000865226 0.000865226 -1.51271e-05 27.7493 4925.71 6340.87 
406 0.7664 0.7664 0 0.000773149 0.000773149 -4.46096e-05 34.3894 5168.46 6767.5 
446 0.8368 0.8368 0 0.00071789 0.00071789 -4.35364e-05 36.8757 5003.26 6917.31 
486 0.8986 0.8986 0 0.000666279 0.000666279 2.20563e-05 39.7398 5006.45 6952.61 
526 0.9234 0.9234 0 0.000623909 0.000623909 -1.64406e-05 40.2473 4867.86 6672.73 
566 0.9132 0.9132 0 0.000637066 0.000637066 5.99579e-05 40.3252 4490.16 6124.43 
606 0.8474 0.8474 0 0.000710265 0.000710265 -1.69358e-05 37.2467 4608.14 6223.3 
646 0.0088 0.0088 0 -2.06233e-05 -2.06233e-05 2.8901e-06 3.23887 203.188 315.756 
686 0.0976 0.0976 0 -0.000387168 -0.000387168 3.55074e-06 3.87168 343.47 598.099 
726 0.142 0.142 0 -0.000596415 -0.000596415 -1.51934e-05 5.96415 516.945 777.121 
766 0.1714 0.1714 0 -0.000732649 -0.000732649 -2.51693e-05 7.32649 822.552 1049.85 
806 0.201 0.201 0 -0.00088503 -0.00088503 -3.44514e-05 8.8503 760.191 1111.16 
846 0.1768 0.1768 0 -0.00077951 -0.00077951 1.246e-05 7.7951 756.015 1099.25 
886 0.141 0.141 0 -0.000599923 -0.000599923 3.00252e-06 5.99923 412.872 700.883 
926 0.0944 0.0944 0 -0.000375233 -0.000375233 2.27656e-05 3.75233 232.227 350.501 
966 0.0344 0.0344 0 1.36667e-05 1.36667e-05 2.65754e-06 14.382 3018.84 3820.95 
1006 0.834 0.834 0 0.000723061 0.000723061 -5.52244e-06 36.7154 4685.54 6277.73 
1046 0.9074 0.9074 0 0.000669024 0.000669024 -5.60549e-05 39.6362 4970.87 6706.17 
1086 0.8802 0.8802 0 0.000635018 0.000635018 -1.79445e-05 38.4131 4699.73 6488.89 
1126 0.8856 0.8856 0 0.00070065 0.00070065 -4.39903e-05 38.8181 5222.97 6823.43 
1166 0.808 0.808 0 0.000717084 0.000717084 1.4273e-05 36.1198 4923.13 6831.11 
1206 0.7366 0.7366 0 0.000782489 0.000782489 1.7755e-05 32.8386 5125.56 6757.27 
1246 0.6102 0.6102 0 0.000842831 0.000842831 -1.89362e-05 26.3323 4463.42 6119.72 
7 0.1824 0.1824 0 0.000739271 0.000739271 -1.06264e-05 77.9741 11762.1 17403 
47 9.3222 9.3222 0 0.0394021 0.0394021 0.000100828 394.021 29804.8 41850.8 
87 10.2728 10.2728 0 0.0426273 0.0426273 7.30294e-06 426.273 27163.1 37423.8 
127 10.5576 10.5576 0 0.043583 0.043583 2.04809e-05 435.83 26872.4 36736.8 
167 10.717 10.717 0 0.0442669 0.0442669 -4.19459e-05 442.669 26181.1 35781.6 
207 10.5178 10.5178 0 0.0434428 0.0434428 -7.68608e-05 434.428 25871.2 35399 
247 10.2332 10.2332 0 0.0425352 0.0425352 -2.92773e-05 425.352 27217.9 37585.3 
287 9.337 9.337 0 0.0395166 0.0395166 0.000147374 395.166 30457.6 42215.6 
327 0.1564 0.1564 0 0.000568411 0.000568411 -1.23735e-06 64.6946 10976.6 15152.2 
367 0.6336 0.6336 0 0.000893752 0.000893752 3.32237e-06 28.0875 5251.21 6868.97 
407 0.7626 0.7626 0 0.000766656 0.000766656 2.72246e-05 33.6415 5195.86 6988.3 
447 0.8236 0.8236 0 0.000691006 0.000691006 7.3079e-05 36.3897 4853.82 6650.49 
487 0.8872 0.8872 0 0.00067814 0.00067814 3.61229e-05 38.8015 5140.65 7115.95 
527 0.8992 0.8992 0 0.000635954 0.000635954 -4.48777e-06 39.2909 4796.7 6523.21 
567 0.8794 0.8794 0 0.000586093 0.000586093 -1.12877e-05 38.4969 4596.32 6283.65 
607 0.8302 0.8302 0 0.000651741 0.000651741 4.66951e-05 36.2422 4544.35 6145.82 
647 0.0076 0.0076 0 -2.02198e-05 -2.02198e-05 1.64395e-07 2.76 240.686 454.786 
687 0.0956 0.0956 0 -0.000389916 -0.000389916 -5.13669e-06 3.89916 267.244 445.88 
727 0.156 0.156 0 -0.000663064 -0.000663064 4.08989e-06 6.63064 618.208 847.043 
767 0.1766 0.1766 0 -0.000767999 -0.000767999 1.783e-05 7.67999 745.428 975.196 
807 0.194 0.194 0 -0.00084376 -0.00084376 3.0549e-05 8.4376 751.29 1125.87 
847 0.1688 0.1688 0 -0.000723969 -0.000723969 -7.52414e-06 7.23969 607.881 875.231 
887 0.1358 0.1358 0 -0.000569235 -0.000569235 1.1841e-05 5.69235 536.674 800.448 
927 0.0818 0.0818 0 -0.000321653 -0.000321653 5.59844e-06 3.21653 271.996 405.234 
967 0.0414 0.0414 0 2.75072e-05 2.75072e-05 2.58623e-06 18.3915 3031.77 3792.2 
1007 0.8576 0.8576 0 0.000676739 0.000676739 -5.69558e-06 37.6878 5118.95 6657.6 
1047 0.908 0.908 0 0.000638205 0.000638205 -3.62367e-05 39.9352 4824.93 6642.19 
1087 0.8866 0.8866 0 0.000710383 0.000710383 9.36944e-06 39.2905 4916.72 7000.32 
1127 0.8844 0.8844 0 0.000671951 0.000671951 -4.79704e-05 38.7033 5038.01 6959.47 
1167 0.8048 0.8048 0 0.000728014 0.000728014 -2.97295e-06 35.6462 5137.89 6984.46 
1207 0.747 0.747 0 0.000776344 0.000776344 -2.59542e-05 33.0387 5370.88 7293.1 
1247 0.6076 0.6076 0 0.000902624 0.000902624 1.37443e-05 25.7061 4744.22 6212.78 
8 0.2252 0.2252 0 0.000937493 0.000937493 9.56835e-06 96.2418 17196.1 23388.3 
48 9.4344 9.4344 0 0.0396233 0.0396233 8.04809e-05 396.233 28767 40083.1 
88 10.2436 10.2436 0 0.0427166 0.0427166 -6.4722e-05 427.166 26731.8 37111.2 
128 10.6102 10.6102 0 0.0438426 0.0438426 -6.80874e-05 438.426 26886 36839 
168 10.6404 10.6404 0 0.0440936 0.0440936 0.000141437 440.936 25528.3 35415.3 
208 10.5698 10.5698 0 0.0436966 0.0436966 -2.34756e-05 436.966 25809.9 35937.3 
248 10.2636 10.2636 0 0.0428035 0.0428035 -6.62333e-05 428.035 27976.1 38475.2 
288 9.3 9.3 0 0.0392966 0.0392966 -4.89884e-05 392.966 29708 41644.7 
328 0.132 0.132 0 0.0004369 0.0004369 1.03088e-05 53.7107 8186.03 11720 
368 0.6368 0.6368 0 0.000845335 0.000845335 -8.66874e-06 27.9827 4767.65 6360.7 
408 0.7744 0.7744 0 0.000814449 0.000814449 -2.28142e-05 34.6096 5641.9 7415.21 
448 0.8408 0.8408 0 0.000683401 0.000683401 -3.7362e-05 37.3008 5315.06 7124.81 
488 0.857 0.857 0 0.000681181 0.000681181 1.86487e-05 37.9756 4854.65 6651.46 
528 0.912 0.912 0 0.000628465 0.000628465 -2.41952e-06 39.9172 4580.23 6418.99 
568 0.9086 0.9086 0 0.00065642 0.00065642 9.03395e-06 39.5099 4641.73 6526.88 
608 0.8122 0.8122 0 0.000648781 0.000648781 -1.05332e-05 35.3152 4222.4 5707.11 
648 0.0082 0.0082 0 -2.38644e-05 -2.38644e-05 4.3852e-06 2.9856 -115.331 75.4033 
688 0.1022 0.1022 0 -0.000425916 -0.000425916 -8.89299e-07 4.25916 339.032 514.447 
728 0.1482 0.1482 0 -0.000652472 -0.000652472 3.43819e-06 6.52472 521.612 760.891 
768 0.1804 0.1804 0 -0.000781364 -0.000781364 9.88458e-06 7.81364 663.504 967.901 
808 0.1984 0.1984 0 -0.000878244 -0.000878244 4.70678e-06 8.78244 767.85 1136.84 
848 0.1712 0.1712 0 -0.000731059 -0.000731059 -2.12198e-05 7.31059 687.534 923.073 
888 0.1436 0.1436 0 -0.000615369 -0.000615369 -4.81991e-06 6.15369 459.4 737.295 
928 0.0766 0.0766 0 -0.000296344 -0.000296344 5.94908e-06 2.96344 174.066 329.817 
968 0.0518 0.0518 0 7.09304e-05 7.09304e-05 3.50962e-07 23.643 4667.39 6080.05 
1008 0.8636 0.8636 0 0.000651006 0.000651006 -3.10547e-05 37.3375 4372.54 6121.19 
1048 0.9086 0.9086 0 0.00066078 0.00066078 -1.66639e-05 39.6512 4763.93 6451.69 
1088 0.8906 0.8906 0 0.000625083 0.000625083 1.84609e-05 39.369 5156.25 6845.13 
1128 0.8448 0.8448 0 0.000668566 0.000668566 1.47383e-05 37.3322 4870.25 6559.92 
1168 0.8276 0.8276 0 0.00073824 0.00073824 -6.59972e-06 36.6113 5314.17 7053.74 
1208 0.7318 0.7318 0 0.000773346 0.000773346 -1.38691e-05 32.5676 5096.81 6796.71 
1248 0.6132 0.6132 0 0.000908504 0.000908504 7.76462e-06 26.3927 4705.31 6428.92 
9 0.2538 0.2538 0 0.00113738 0.00113738 -2.96039e-07 112.273 19175.6 27013.3 
49 9.3922 9.3922 0 0.0395621 0.0395621 8.92759e-05 395.621 29391.1 40620.6 
89 10.3332 10.3332 0 0.0429488 0.0429488 -4.06246e-05 429.488 26925.1 37337.2 
129 10.5836 10.5836 0 0.0436538 0.0436538 9.52646e-05 436.538 25577.2 35484.8 
169 10.6882 10.6882 0 0.0441892 0.0441892 7.01247e-05 441.892 25720.2 36015.3 
209 10.589 10.589 0 0.0436949 0.0436949 0.000142411 436.949 26228.4 36778.4 
249 10.1956 10.1956 0 0.0424501 0.0424501 -0.000103255 424.501 27804.7 38499.5 
289 9.2246 9.2246 0 0.0389314 0.0389314 3.038e-05 389.314 29818.9 41848.2 
329 0.1084 0.1084 0 0.000352489 0.000352489 -2.31483e-06 44.4975 6960.83 10010.7 
369 0.6474 0.6474 0 0.000827232 0.000827232 3.74201e-05 28.5105 4892.39 6384.24 
409 0.7638 0.7638 0 0.000738041 0.000738041 -4.58217e-05 33.9929 4860.95 6718.9 
449 0.8516 0.8516 0 0.000740105 0.000740105 -3.32048e-05 38.0106 5555.32 7418.91 
489 0.9228 0.9228 0 0.00059943 0.00059943 -3.08019e-05 40.782 5516.9 7324.3 
529 0.9086 0.9086 0 0.000630102 0.000630102 1.39551e-05 39.7393 4845.98 6750.46 
569 0.925 0.925 0 0.000655822 0.000655822 -2.7387e-06 40.8656 5062.29 6975.92 
609 0.8204 0.8204 0 0.000707241 0.000707241 -4.17916e-05 36.1812 4513.19 6295.38 
649 0.006 0.006 0 -1.71027e-05 -1.71027e-05 -1.39683e-06 1.97455 322.536 283.467 
689 0.099 0.099 0 -0.00039626 -0.00039626 -6.31602e-06 3.9626 320.047 502.706 
729 0.1522 0.1522 0 -0.000644888 -0.000644888 1.92689e-05 6.44888 643.977 895.679 
769 0.182 0.182 0 -0.000786407 -0.000786407 1.64111e-06 7.86407 741.734 1105.54 
809 0.1868 0.1868 0 -0.000818793 -0.000818793 -6.22123e-06 8.18793 760.153 1146.63 
849 0.179 0.179 0 -0.00077008 -0.00077008 -4.13416e-06 7.7008 589.709 909.147 
889 0.1246 0.1246 0 -0.000521942 -0.000521942 1.21438e-06 5.21942 552.224 753.016 
929 0.0826 0.0826 0 -0.000321191 -0.000321191 2.46225e-05 3.21191 336.612 501.273 
969 0.0502 0.0502 0 7.27965e-05 7.27965e-05 8.71101e-06 22.0457 4277.21 5311.08 
1009 0.8638 0.8638 0 0.000682643 0.000682643 2.65177e-05 37.5707 4593.15 6365.15 
1049 0.9232 0.9232 0 0.000629275 0.000629275 1.3162e-05 40.5415 4844.67 6691.34 
1089 0.8794 0.8794 0 0.000626435 0.000626435 -7.72997e-06 38.7532 4707.76 6485.41 
1129 0.8788 0.8788 0 0.000697543 0.000697543 -4.31393e-07 38.4522 4995.41 6668.18 
1169 0.803 0.803 0 0.000716225 0.000716225 -8.47929e-06 35.9131 5404.23 7288.91 
1209 0.7024 0.7024 0 0.000754961 0.000754961 4.92749e-05 31.0192 4953.07 6679.55 
1249 0.5954 0.5954 0 0.000852539 0.000852539 9.22809e-06 25.6809 4543.38 6245.25 
10 0.3138 0.3138 0 0.00141579 0.00141579 4.61334e-06 141.415 22820.2 31318.9 
50 9.414 9.414 0 0.0397806 0.0397806 -9.0535e-05 397.806 29300 40357.6 
90 10.3488 10.3488 0 0.0428965 0.0428965 8.49341e-05 428.965 27481.9 37480.1 
130 10.6546 10.6546 0 0.0439973 0.0439973 -6.1771e-06 439.973 26342.7 36445.5 
170 10.7114 10.7114 0 0.0442535 0.0442535 -0.000250608 442.535 25998.5 36337.3 
210 10.6686 10.6686 0 0.0441626 0.0441626 0.000106513 441.626 26757.9 36474.9 
250 10.265 10.265 0 0.0427148 0.0427148 -0.000120241 427.148 27167.3 37880.5 
290 9.1772 9.1772 0 0.0389061 0.0389061 -6.69943e-05 389.061 30183.3 41998.4 
330 0.0944 0.0944 0 0.000275677 0.000275677 2.31615e-06 39.3231 6992.64 9989.29 
370 0.6674 0.6674 0 0.000897792 0.000897792 7.21706e-06 29.4659 4929.06 6488.23 
410 0.758 0.758 0 0.000754336 0.000754336 4.24422e-05 34.0359 5091.21 6843.67 
450 0.8366 0.8366 0 0.000720515 0.000720515 -3.45417e-05 37.1174 4973.33 6823.69 
490 0.8886 0.8886 0 0.000693761 0.000693761 7.92107e-06 39.2654 4948.38 6875.18 
530 0.8998 0.8998 0 0.000635731 0.000635731 -8.49506e-06 39.4061 4330.09 6140.53 
570 0.8874 0.8874 0 0.000621982 0.000621982 -1.66724e-05 38.9113 4599.65 6314.45 
610 0.8308 0.8308 0 0.000721564 0.000721564 -5.16279e-05 36.8621 4677.72 6210.84 
650 0.0054 0.0054 0 -1.46504e-05 -1.46504e-05 -2.14551e-06 1.53991 109.187 262.318 
690 0.1066 0.1066 0 -0.000433287 -0.000433287 -1.35469e-05 4.33287 346.854 550.285 
730 0.1454 0.1454 0 -0.000629262 -0.000629262 -1.97727e-06 6.29262 617.829 830.55 
770 0.1906 0.1906 0 -0.000853239 -0.000853239 -1.27284e-05 8.53239 750.65 1151.3 
810 0.2032 0.2032 0 -0.000882905 -0.000882905 4.28016e-06 8.82905 731.001 1081.29 
850 0.1712 0.1712 0 -0.00073444 -0.00073444 1.08356e-05 7.3444 678.927 1043.19 
890 0.1344 0.1344 0 -0.000570833 -0.000570833 -2.25076e-06 5.70833 407.889 647.294 
930 0.0838 0.0838 0 -0.000330446 -0.000330446 -8.24035e-06 3.30446 212.417 421.483 
970 0.1492 0.1492 0 0.000257029 0.000257029 -1.87492e-05 27.6218 5199.83 6496.7 
1010 0.8778 0.8778 0 0.000676708 0.000676708 1.13686e-05 38.4818 4731.48 6381.72 
1050 0.9148 0.9148 0 0.000644436 0.000644436 1.85519e-05 39.557 4667.65 6370.08 
1090 0.8992 0.8992 0 0.000613015 0.000613015 -1.22726e-05 40.0402 5115.75 6984.06 
1130 0.8744 0.8744 0 0.000731671 0.000731671 3.89208e-05 38.8023 5075.56 6940.88 
1170 0.8206 0.8206 0 0.000706325 0.000706325 -5.81077e-06 36.4003 5271.7 7237.35 
1210 0.7398 0.7398 0 0.000836146 0.000836146 -3.6975e-05 33.1562 5324.48 6936.6 
1250 0.582 0.582 0 0.000873589 0.000873589 -2.44715e-05 25.1397 4430.52 5935.39 
11 0.3472 0.3472 0 0.00160276 0.00160276 1.34211e-05 156.58 27819.6 36784.6 
51 9.4944 9.4944 0 0.0400432 0.0400432 9.3306e-05 400.432 29743.8 41037.5 
91 10.2346 10.2346 0 0.0423817 0.0423817 -0.000159294 423.817 25792.2 35947.4 
131 10.6388 10.6388 0 0.0440791 0.0440791 -4.97727e-05 440.791 26711.6 37119.7 
171 10.6412 10.6412 0 0.0440563 0.0440563 7.94588e-05 440.563 25982.5 35905.4 
211 10.6254 10.6254 0 0.0440055 0.0440055 0.000183309 440.055 25808.9 35366 
251 10.179 10.179 0 0.0422564 0.0422564 -0.000177619 422.564 27033.1 38006.3 
291 9.1828 9.1828 0 0.0389746 0.0389746 5.00343e-05 389.746 30078.8 41979.5 
331 0.0814 0.0814 0 0.000230247 0.000230247 6.15475e-06 33.0612 5723.51 8081.84 
371 0.6546 0.6546 0 0.00083923 0.00083923 -5.29727e-06 28.4446 5161.18 6466.13 
411 0.75 0.75 0 0.000730901 0.000730901 4.66972e-05 33.5933 4996.57 6782.48 
451 0.8368 0.8368 0 0.000674603 0.000674603 2.74365e-06 37.7044 5118.58 6999.52 
491 0.8886 0.8886 0 0.000701109 0.000701109 3.37785e-05 38.9361 4964.41 6901.47 
531 0.92 0.92 0 0.000680215 0.000680215 1.57343e-05 40.4564 5100.48 7091.29 
571 0.8906 0.8906 0 0.000675633 0.000675633 -3.52932e-05 38.9595 4841.37 6583.77 
611 0.8076 0.8076 0 0.000690686 0.000690686 -1.42804e-05 35.1958 4274.68 5966.44 
651 0.0058 0.0058 0 -1.76019e-05 -1.76019e-05 -4.93413e-08 1.80847 -78.5581 90.7038 
691 0.0954 0.0954 0 -0.000381745 -0.000381745 -1.9008e-05 3.81745 380.1 576.996 
731 0.1488 0.1488 0 -0.000631408 -0.000631408 -1.83248e-05 6.31408 564.97 773.691 
771 0.1784 0.1784 0 -0.000770572 -0.000770572 -1.82377e-05 7.70572 521.172 791.626 
811 0.2128 0.2128 0 -0.000940026 -0.000940026 6.49822e-06 9.40026 873.489 1154.9 
851 0.161 0.161 0 -0.000710228 -0.000710228 -1.65477e-05 7.10228 531.522 804.749 
891 0.1448 0.1448 0 -0.000606029 -0.000606029 5.83964e-06 6.06029 512.775 798.505 
931 0.081 0.081 0 -0.000322854 -0.000322854 -5.08381e-06 3.22854 262.914 427.028 
971 0.1506 0.1506 0 0.000252379 0.000252379 1.19581e-05 27.7186 4942.72 6115.49 
1011 0.8674 0.8674 0 0.000637356 0.000637356 1.30896e-05 38.0856 4258.36 5924.97 
1051 0.911 0.911 0 0.000635676 0.000635676 2.36159e-05 39.6121 4617.95 6404.75 
1091 0.8904 0.8904 0 0.000635096 0.000635096 -6.73703e-06 39.3994 4940.41 6787.6 
1131 0.8764 0.8764 0 0.000676213 0.000676213 -4.07758e-05 38.8998 5271.27 7060.74 
1171 0.799 0.799 0 0.000747632 0.000747632 4.93142e-05 35.5745 4969.69 6839.2 
1211 0.7344 0.7344 0 0.000807319 0.000807319 8.75455e-06 32.688 5082.51 6662.54 
1251 0.5766 0.5766 0 0.000819432 0.000819432 -1.83002e-07 24.804 4222.62 5705.1 
12 0.4112 0.4112 0 0.00188105 0.00188105 -2.52683e-05 184.384 30293.2 42971.3 
52 9.562 9.562 0 0.0402943 0.0402943 5.45808e-05 402.943 29443.1 40917.7 
92 10.378 10.378 0 0.0429817 0.0429817 8.42138e-05 429.817 26140.5 36288.8 
132 10.6684 10.6684 0 0.0439733 0.0439733 7.93032e-05 439.733 26523.1 36539.1 
172 10.6428 10.6428 0 0.0440361 0.0440361 -2.65029e-05 440.361 25944.8 36012.3 
212 10.4674 10.4674 0 0.0433355 0.0433355 2.04155e-05 433.355 25889.2 36042.2 
252 10.052 10.052 0 0.0420036 0.0420036 -9.75067e-06 420.036 27494.9 37530.3 
292 9.0588 9.0588 0 0.0383947 0.0383947 -6.19006e-05 383.947 30069.7 42007.1 
332 0.0596 0.0596 0 0.000124802 0.000124802 -2.17158e-06 22.6997 3669.3 5865.55 
372 0.683 0.683 0 0.000860266 0.000860266 -1.34114e-05 30.4038 5338.18 7016.35 
412 0.7798 0.7798 0 0.00075074 0.00075074 5.91167e-06 34.4661 5137.79 6832.75 
452 0.8346 0.8346 0 0.000765405 0.000765405 1.95504e-05 37.1794 5276.92 7254.95 
492 0.89 0.89 0 0.000672016 0.000672016 1.9369e-05 39.0649 5253.41 7300.83 
532 0.916 0.916 0 0.000628487 0.000628487 3.32414e-05 40.3695 4853.51 6647.35 
572 0.8968 0.8968 0 0.000644107 0.000644107 -3.29288e-05 39.4976 4524.91 6261.08 
612 0.815 0.815 0 0.000707371 0.000707371 -2.40307e-05 35.6775 4439.68 6021.65 
652 0.0112 0.0112 0 -3.69048e-05 -3.69048e-05 -3.32854e-06 1.47619 149.151 180.303 
692 0.1044 0.1044 0 -0.000418601 -0.000418601 4.72329e-06 4.18601 369.6 522.345 
732 0.1554 0.1554 0 -0.000659993 -0.000659993 2.20739e-05 6.59993 509.211 669.557 