ITEM: TIMESTEP
25000
ITEM: NUMBER OF SURFS
1272
ITEM: BOX BOUNDS oo rr pp
0 0.3
0 0.3
-0.5 0.5
ITEM: SURFS id f_4[1] f_4[2] f_4[3] f_4[4] f_4[5] f_4[6] f_4[7] f_4[8] f_4[9] 
1 0.0244 0.0244 0 -1.1548e-05 -1.1548e-05 -1.14463e-06 8.00264 666.987 1080.03 
41 6.0232 6.0232 0 0.0192505 0.0192505 2.65834e-06 251.981 16141.7 23004.1 
81 7.1442 7.1442 0 0.0220404 0.0220404 6.98912e-05 295.247 16966.5 24252.1 
121 7.7834 7.7834 0 0.0238081 0.0238081 -0.000193401 320.878 20015 27765.5 
161 8.0838 8.0838 0 0.0247472 0.0247472 -0.000114547 336.305 21197.9 29434 
201 8.501 8.501 0 0.0259836 0.0259836 -7.32254e-05 353.654 23292.1 32443.5 
241 8.8754 8.8754 0 0.0274683 0.0274683 5.97877e-05 372.228 25767.8 36781.2 
281 9.1894 9.1894 0 0.0292169 0.0292169 -2.88528e-05 396.001 36416.4 51630 
321 0.8098 0.8098 0 0.00411357 0.00411357 -3.50375e-05 455.103 130722 187559 
361 9.1912 9.1912 0 0.0297698 0.0297698 -3.04396e-05 402.231 42213.8 59939 
401 8.8432 8.8432 0 0.0277444 0.0277444 -2.82175e-05 374.039 30113.2 42164.8 
441 8.5042 8.5042 0 0.0262136 0.0262136 -8.2164e-05 355.23 24603.2 34493.1 
481 8.039 8.039 0 0.0246694 0.0246694 -2.91138e-05 335.146 21039.7 29163.7 
521 7.811 7.811 0 0.0236676 0.0236676 -1.59847e-05 321.497 17873.3 25270.6 
561 7.3044 7.3044 0 0.022256 0.022256 -0.000166967 300.339 17079.1 23591.2 
601 6.4324 6.4324 0 0.0200411 0.0200411 3.30163e-06 265.989 16231.5 22661.9 
641 0.1662 0.1662 0 0.000429294 0.000429294 1.15962e-05 67.3314 8737.86 11656.9 
681 0.1172 0.1172 0 -0.000144445 -0.000144445 9.14771e-07 4.23506 664.351 757.658 
721 0.1052 0.1052 0 -0.000125222 -0.000125222 -8.44111e-06 3.93484 635.066 729.849 
761 0.0986 0.0986 0 -0.000154003 -0.000154003 -3.73436e-06 3.79204 490.924 655.797 
801 0.1062 0.1062 0 -0.000198823 -0.000198823 1.70562e-06 4.14216 576.387 765.273 
841 0.1428 0.1428 0 -0.000351236 -0.000351236 1.51664e-08 5.91079 622.931 757.879 
881 0.1988 0.1988 0 -0.000548478 -0.000548478 -7.89789e-06 8.19899 640.726 897.421 
921 0.2404 0.2404 0 -0.000719032 -0.000719032 -2.87537e-05 10.0938 681.455 1003.58 
961 0.0296 0.0296 0 -0.000120886 -0.000120886 1.80702e-06 12.3324 1014.35 1728.98 
1001 0.2546 0.2546 0 -0.000776351 -0.000776351 1.24346e-05 10.7697 897.956 1131.37 
1041 0.211 0.211 0 -0.00057371 -0.00057371 -1.08404e-05 8.57627 665.29 1023.93 
1081 0.1576 0.1576 0 -0.000387965 -0.000387965 3.13833e-06 6.62968 669.942 876.536 
1121 0.1118 0.1118 0 -0.000223363 -0.000223363 -1.13793e-05 4.42641 590.489 728.576 
1161 0.1014 0.1014 0 -0.000143257 -0.000143257 1.07804e-05 3.85427 593.078 710.859 
1201 0.1054 0.1054 0 -0.000135311 -0.000135311 9.62619e-06 3.95119 585.373 754.488 
1241 0.1118 0.1118 0 -0.000135722 -0.000135722 2.98004e-05 3.92459 429.252 559.578 
2 0.0296 0.0296 0 -5.5486e-06 -5.5486e-06 3.753e-07 10.2089 497.253 1394.64 
42 6.1364 6.1364 0 0.0195039 0.0195039 7.88968e-06 255.065 17682.3 24563.2 
82 7.2678 7.2678 0 0.0221447 0.0221447 7.86851e-05 298.425 17056.9 24339.4 
122 7.7964 7.7964 0 0.023569 0.023569 6.35368e-05 319.947 17473.4 24807 
162 8.1622 8.1622 0 0.0247036 0.0247036 -7.14654e-05 336.194 19011.4 27018.9 
202 8.4548 8.4548 0 0.0259075 0.0259075 9.01416e-06 352.3 22082.1 31334 
242 8.7924 8.7924 0 0.0273943 0.0273943 4.21628e-05 372.629 28412.1 39934.7 
282 9.07 9.07 0 0.0293411 0.0293411 2.7512e-05 396.198 40349.1 56246.3 
322 0.8494 0.8494 0 0.00439412 0.00439412 -2.68436e-05 473.182 136228 197120 
362 9.109 9.109 0 0.0293487 0.0293487 8.99485e-05 399.245 42152.9 58807.1 
402 8.9062 8.9062 0 0.0273587 0.0273587 -0.000124416 373.604 26747.3 38229.6 
442 8.5962 8.5962 0 0.025937 0.025937 -1.84613e-05 354.575 21403.7 30848.9 
482 8.2528 8.2528 0 0.024971 0.024971 -1.69821e-05 340.419 20096.4 28765.5 
522 7.873 7.873 0 0.0239318 0.0239318 0.000155432 323.688 18912.7 26708.9 
562 7.3106 7.3106 0 0.0225533 0.0225533 1.98876e-05 302.361 18077.3 25177.7 
602 6.2692 6.2692 0 0.0197197 0.0197197 6.66021e-05 260.46 17035.1 23898.9 
642 0.133 0.133 0 0.000314851 0.000314851 -6.92656e-07 54.1538 8175.56 10566.3 
682 0.1186 0.1186 0 -0.000131012 -0.000131012 -9.65329e-06 4.21782 600.82 707.799 
722 0.1054 0.1054 0 -0.000129147 -0.000129147 -9.66672e-06 3.95619 656.305 807.399 
762 0.1016 0.1016 0 -0.000138808 -0.000138808 -7.06273e-06 3.82117 641.233 777.769 
802 0.1004 0.1004 0 -0.000183239 -0.000183239 9.14415e-08 3.92297 499.644 629.158 
842 0.1376 0.1376 0 -0.000303098 -0.000303098 1.93581e-05 5.56883 553.989 653.437 
882 0.212 0.212 0 -0.000562045 -0.000562045 1.40239e-05 8.68498 725.103 1019.82 
922 0.2444 0.2444 0 -0.000713729 -0.000713729 -2.77005e-05 10.1959 776.909 1200.89 
962 0.0246 0.0246 0 -0.000101961 -0.000101961 7.13667e-06 10.4246 1020.1 1759.96 
1002 0.2452 0.2452 0 -0.000716487 -0.000716487 6.38781e-06 10.2502 778.341 1078.35 
1042 0.1906 0.1906 0 -0.000525941 -0.000525941 1.57782e-05 7.84186 684.345 927.816 
1082 0.1478 0.1478 0 -0.000366066 -0.000366066 2.82917e-05 6.21615 651.627 840.896 
1122 0.1136 0.1136 0 -0.000213253 -0.000213253 1.60472e-05 4.54998 624.223 740.425 
1162 0.1014 0.1014 0 -0.00014891 -0.00014891 -1.69347e-06 3.96881 686.037 743.658 
1202 0.1094 0.1094 0 -0.000145624 -0.000145624 -2.06075e-07 4.14818 519.319 674.708 
1242 0.1246 0.1246 0 -0.000147858 -0.000147858 1.80496e-05 4.38447 511.857 672.59 
3 0.042 0.042 0 2.07125e-06 2.07125e-06 2.23679e-07 15.0725 1802.82 2755.97 
43 6.1718 6.1718 0 0.0194956 0.0194956 8.58198e-06 255.709 16444.2 22603.7 
83 7.062 7.062 0 0.0217812 0.0217812 -8.28153e-05 292.063 17128.8 23812.2 
123 7.7888 7.7888 0 0.0238705 0.0238705 -4.33383e-05 321.438 19542.2 26938.3 
163 8.1792 8.1792 0 0.0249249 0.0249249 -8.39155e-05 337.735 21346.6 29483.8 
203 8.5038 8.5038 0 0.0258632 0.0258632 -0.00014691 352.136 22491.4 31768.5 
243 8.7972 8.7972 0 0.0270877 0.0270877 6.88064e-05 369.356 25211 36287.1 
283 9.052 9.052 0 0.0287514 0.0287514 2.30545e-05 391.622 36227.7 51602.4 
323 0.8364 0.8364 0 0.00449376 0.00449376 3.47182e-05 469.39 135135 193935 
363 9.2224 9.2224 0 0.0297403 0.0297403 -7.89793e-05 402.639 41640.5 58682 
403 8.7632 8.7632 0 0.0274043 0.0274043 0.000104012 371.805 29882.8 41329.6 
443 8.433 8.433 0 0.0261912 0.0261912 -9.33957e-06 354.324 24712.9 34427 
483 8.1312 8.1312 0 0.024837 0.024837 -2.75929e-05 337.273 20208.4 28635 
523 7.6946 7.6946 0 0.0232994 0.0232994 -3.2753e-05 317.574 17779.3 25280.1 
563 7.2536 7.2536 0 0.0219586 0.0219586 -1.61045e-06 297.61 16744.3 23559.7 
603 6.4058 6.4058 0 0.0200111 0.0200111 -4.3584e-05 264.034 16550.4 23445.9 
643 0.1104 0.1104 0 0.000220251 0.000220251 6.02879e-06 43.9598 5640.2 7987.36 
683 0.1086 0.1086 0 -0.000128915 -0.000128915 -2.95525e-06 3.87816 475.329 662.622 
723 0.106 0.106 0 -0.000144987 -0.000144987 -1.57971e-05 3.95552 608.489 760.07 
763 0.0904 0.0904 0 -0.000134999 -0.000134999 9.58716e-06 3.4779 487.987 620.747 
803 0.1066 0.1066 0 -0.000196339 -0.000196339 -2.09022e-06 4.24031 630.344 795.639 
843 0.1492 0.1492 0 -0.000353975 -0.000353975 -1.23878e-05 6.1642 642.563 871.158 
883 0.2092 0.2092 0 -0.000569574 -0.000569574 -9.18156e-06 8.58543 807.454 1170.1 
923 0.2662 0.2662 0 -0.000771324 -0.000771324 -3.30643e-05 11.2202 930.783 1433.81 
963 0.0252 0.0252 0 -0.000105384 -0.000105384 4.80264e-06 10.8145 1142.68 1470.64 
1003 0.2394 0.2394 0 -0.000696576 -0.000696576 1.11104e-05 9.99946 772.945 1102.26 
1043 0.1926 0.1926 0 -0.000530116 -0.000530116 4.04191e-06 7.9527 673.831 928.605 
1083 0.1468 0.1468 0 -0.000355407 -0.000355407 -9.43199e-06 6.05806 576.431 778.095 
1123 0.118 0.118 0 -0.000226339 -0.000226339 -9.40795e-06 4.71503 546.438 664.961 
1163 0.1036 0.1036 0 -0.000152407 -0.000152407 -8.60215e-06 3.97813 585.696 696.32 
1203 0.1056 0.1056 0 -0.000148232 -0.000148232 2.83202e-06 4.06636 587.032 733.189 
1243 0.1166 0.1166 0 -0.00014466 -0.00014466 -2.33144e-05 4.28103 551.299 735.814 
4 0.055 0.055 0 3.27356e-05 3.27356e-05 -4.33613e-06 20.1655 3005.52 3888.77 
44 6.2578 6.2578 0 0.0197941 0.0197941 9.41304e-05 259.372 16498.6 23381.3 
84 7.2306 7.2306 0 0.0221101 0.0221101 -0.000127149 296.878 17189.7 24086.9 
124 7.8066 7.8066 0 0.0235111 0.0235111 6.17946e-05 319.651 17338.5 24757.5 
164 8.1268 8.1268 0 0.0246784 0.0246784 6.46546e-05 335.654 19400.3 27666.5 
204 8.495 8.495 0 0.0260463 0.0260463 5.56857e-06 353.527 24073.1 33536.7 
244 8.7612 8.7612 0 0.0274016 0.0274016 -9.96183e-06 371.352 29931.9 41767.8 
284 8.9712 8.9712 0 0.0288578 0.0288578 -5.66021e-05 391.2 40508.1 56082.3 
324 0.8116 0.8116 0 0.00438241 0.00438241 3.74682e-05 451.105 131998 190357 
364 9.1202 9.1202 0 0.0290827 0.0290827 1.88619e-05 395.474 39228.4 55930.9 
404 8.8534 8.8534 0 0.0272853 0.0272853 3.68794e-05 372.149 26637.2 37988.7 
444 8.5126 8.5126 0 0.0259566 0.0259566 4.48343e-06 353.138 22448.5 31737.3 
484 8.2616 8.2616 0 0.0250458 0.0250458 8.80954e-05 340.735 20182.1 28858.8 
524 7.8162 7.8162 0 0.0238228 0.0238228 8.66247e-05 321.922 19994.7 27946.4 
564 7.2122 7.2122 0 0.0222623 0.0222623 6.60272e-05 298.637 18794.6 26336.4 
604 6.2712 6.2712 0 0.0198482 0.0198482 3.44364e-05 260.712 16323.2 23629.6 
644 0.0922 0.0922 0 0.00015148 0.00015148 1.80709e-06 35.9112 5240.29 6949.19 
684 0.1144 0.1144 0 -0.00012913 -0.00012913 1.35792e-05 4.18726 574.41 733.058 
724 0.1056 0.1056 0 -0.00015371 -0.00015371 -1.55179e-05 4.03915 538.297 660.455 
764 0.0994 0.0994 0 -0.000129618 -0.000129618 -5.42699e-06 3.71795 500.851 578.021 
804 0.1098 0.1098 0 -0.000207481 -0.000207481 -1.08292e-05 4.27637 515.911 606.538 
844 0.1566 0.1566 0 -0.000390993 -0.000390993 -1.4172e-05 6.61919 712.704 872.842 
884 0.1976 0.1976 0 -0.000548497 -0.000548497 8.34448e-06 8.26616 613.517 891.664 
924 0.2518 0.2518 0 -0.000741956 -0.000741956 1.47824e-05 10.5915 890.116 1276.89 
964 0.0222 0.0222 0 -9.79288e-05 -9.79288e-05 -5.78907e-06 10.2985 616.113 778.491 
1004 0.2476 0.2476 0 -0.00072619 -0.00072619 -5.24152e-06 10.4021 878.642 1279.63 
1044 0.1948 0.1948 0 -0.000530501 -0.000530501 -1.74848e-05 8.01261 843.313 1120.41 
1084 0.1432 0.1432 0 -0.000334562 -0.000334562 1.17742e-05 5.83025 575.615 744.602 
1124 0.111 0.111 0 -0.000225489 -0.000225489 3.64212e-06 4.52387 566.957 744.204 
1164 0.095 0.095 0 -0.00013867 -0.00013867 -2.51945e-06 3.55631 550.721 641.129 
1204 0.1046 0.1046 0 -0.000135646 -0.000135646 -1.2718e-05 3.96416 674.981 830.693 
1244 0.1114 0.1114 0 -0.000128986 -0.000128986 -8.97254e-06 3.98076 508.246 653.74 
5 0.062 0.062 0 5.32834e-05 5.32834e-05 4.29599e-06 24.0279 2217.82 2970.52 
45 6.2164 6.2164 0 0.0196544 0.0196544 -4.96307e-05 258.5 16644.7 23129.5 
85 7.2774 7.2774 0 0.0223916 0.0223916 3.19195e-05 301.22 18531.9 25778.3 
125 7.8002 7.8002 0 0.0238804 0.0238804 7.04593e-05 323.241 19899.9 27706 
165 8.1972 8.1972 0 0.0249468 0.0249468 3.81292e-05 338.328 20538.5 28898.5 
205 8.585 8.585 0 0.0261443 0.0261443 0.000114932 356.37 22493.9 31991.1 
245 8.7602 8.7602 0 0.0269747 0.0269747 -5.60741e-05 367.6 25966.6 36854.7 
285 9.1404 9.1404 0 0.0291723 0.0291723 -0.000150245 396.651 38760.7 54683.5 
325 0.8328 0.8328 0 0.00461908 0.00461908 3.39106e-05 471.173 142139 201149 
365 9.0158 9.0158 0 0.0289825 0.0289825 -9.42997e-05 393.5 40563.6 57245.9 
405 8.6998 8.6998 0 0.0272249 0.0272249 -0.000106285 369.386 30445.8 42132.4 
445 8.4294 8.4294 0 0.0260177 0.0260177 6.6482e-06 352.683 24481.3 34083.4 
485 8.101 8.101 0 0.0245693 0.0245693 7.67174e-05 333.769 19636.3 27893.8 
525 7.8044 7.8044 0 0.0236815 0.0236815 -5.74617e-05 321.553 17628.6 24898.3 
565 7.3258 7.3258 0 0.0222531 0.0222531 1.62983e-05 300.016 16454.5 23487.7 
605 6.3444 6.3444 0 0.0200165 0.0200165 1.42334e-05 262.907 16872.8 23414.1 
645 0.08 0.08 0 0.000114152 0.000114152 -1.01871e-05 30.4263 4636.18 6573.61 
685 0.1156 0.1156 0 -0.000129519 -0.000129519 7.75324e-06 4.20356 599.365 733.308 
725 0.0944 0.0944 0 -0.000129113 -0.000129113 5.83848e-07 3.52646 530.158 632.385 
765 0.097 0.097 0 -0.000142155 -0.000142155 -3.64004e-06 3.74417 463.822 567.269 
805 0.112 0.112 0 -0.000204019 -0.000204019 -1.51372e-06 4.47438 653.053 745.059 
845 0.1498 0.1498 0 -0.000373105 -0.000373105 -5.70579e-06 6.41668 720.773 902.781 
885 0.2132 0.2132 0 -0.000600848 -0.000600848 -1.60429e-05 9.00478 743.433 1082.31 
925 0.2556 0.2556 0 -0.000743662 -0.000743662 8.5396e-06 10.6314 881.037 1176.05 
965 0.0232 0.0232 0 -9.26168e-05 -9.26168e-05 -1.29099e-06 9.74945 1168.5 1715.19 
1005 0.2532 0.2532 0 -0.000724767 -0.000724767 1.0832e-05 10.3942 938.226 1328.82 
1045 0.192 0.192 0 -0.000504642 -0.000504642 9.74254e-06 7.90643 581.669 816.803 
1085 0.1466 0.1466 0 -0.0003571 -0.0003571 -8.44429e-06 6.02747 650.973 868.997 
1125 0.1174 0.1174 0 -0.000206574 -0.000206574 3.90842e-06 4.66384 679.002 837.242 
1165 0.0938 0.0938 0 -0.00013918 -0.00013918 -1.19107e-05 3.66317 514.312 629.461 
1205 0.1088 0.1088 0 -0.00014597 -0.00014597 -4.75797e-06 4.11552 630.774 737.225 
1245 0.1278 0.1278 0 -0.000148921 -0.000148921 1.44406e-06 4.58231 530.455 709.645 
6 0.0768 0.0768 0 9.90917e-05 9.90917e-05 4.42145e-06 29.6133 3504.51 5013 
46 6.328 6.328 0 0.0200627 0.0200627 5.13752e-06 263.881 16269.8 23252.6 
86 7.195 7.195 0 0.022087 0.022087 0.000140444 297.455 17228 24274.7 
126 7.7518 7.7518 0 0.0235306 0.0235306 -1.67705e-05 318.859 17839 25287.4 
166 8.0738 8.0738 0 0.0245737 0.0245737 -9.22664e-05 334.808 20202.9 28711.2 
206 8.5034 8.5034 0 0.0259626 0.0259626 -0.000160011 354.921 24135.3 33500.1 
246 8.7622 8.7622 0 0.0275081 0.0275081 4.2332e-05 372.199 29526.4 40871.8 
286 9.0926 9.0926 0 0.0293827 0.0293827 0.00023782 397.745 41002.7 57877.8 
326 0.8188 0.8188 0 0.00447338 0.00447338 8.81734e-05 456.237 134101 192729 
366 9.0732 9.0732 0 0.0288479 0.0288479 -8.11328e-05 392.91 37317.6 53541.9 
406 8.8646 8.8646 0 0.0272311 0.0272311 0.000218742 371.269 25568.8 36776.3 
446 8.5522 8.5522 0 0.0259843 0.0259843 -2.27251e-05 354.464 22490.5 32044.1 
486 8.2296 8.2296 0 0.0251475 0.0251475 7.38577e-05 340.439 20152.2 27922.3 
526 7.698 7.698 0 0.0235201 0.0235201 -2.55749e-05 317.779 18861.7 26287.7 
566 7.0996 7.0996 0 0.0219712 0.0219712 1.70479e-05 294.269 18371.9 25387.5 
606 6.2036 6.2036 0 0.0197067 0.0197067 -0.000205925 259.124 16604.3 23388.2 
646 0.0518 0.0518 0 5.74168e-05 5.74168e-05 1.11446e-06 19.5695 2752.75 3415.42 
686 0.1072 0.1072 0 -0.000122468 -0.000122468 4.25757e-06 3.82577 543.92 624.237 
726 0.0978 0.0978 0 -0.000115802 -0.000115802 -6.42836e-06 3.64618 638.73 776.543 
766 0.0976 0.0976 0 -0.000140912 -0.000140912 6.97751e-06 3.75625 595.497 699.968 
806 0.1128 0.1128 0 -0.000229481 -0.000229481 -9.55866e-06 4.59551 554.115 692.01 
846 0.146 0.146 0 -0.00037819 -0.00037819 1.42506e-05 6.19029 655.91 868.843 
886 0.2026 0.2026 0 -0.000556173 -0.000556173 1.77528e-05 8.20507 650.02 886.716 
926 0.251 0.251 0 -0.000740868 -0.000740868 -1.66133e-05 10.5968 841.994 1227.09 
966 0.0204 0.0204 0 -7.99835e-05 -7.99835e-05 1.87499e-06 9.10221 1001.53 1268.62 
1006 0.2488 0.2488 0 -0.000726966 -0.000726966 -1.16789e-05 10.542 846.243 1292.74 
1046 0.1928 0.1928 0 -0.000513583 -0.000513583 1.1373e-05 8.05792 750.451 1031.46 
1086 0.1488 0.1488 0 -0.000354549 -0.000354549 -2.60988e-05 6.08044 657.211 907.436 
1126 0.1046 0.1046 0 -0.000181828 -0.000181828 3.61158e-06 4.03898 487.158 633.17 
1166 0.0976 0.0976 0 -0.000155135 -0.000155135 1.47926e-05 3.87116 499.112 623.042 
1206 0.1066 0.1066 0 -0.000144424 -0.000144424 1.15591e-05 4.02943 565.766 722.191 
1246 0.1184 0.1184 0 -0.000147423 -0.000147423 1.43833e-05 4.31004 490.57 646.236 
7 0.0944 0.0944 0 0.000135946 0.000135946 -2.64303e-06 37.171 4712.53 6696.76 
47 6.2614 6.2614 0 0.0196474 0.0196474 -9.18112e-05 259.418 16987.9 23869.5 
87 7.286 7.286 0 0.0224527 0.0224527 -0.000102499 301.67 18257.5 25701.6 
127 7.8614 7.8614 0 0.0240299 0.0240299 -0.000112154 325.072 19800.8 27544.4 
167 8.3158 8.3158 0 0.0254012 0.0254012 0.000140229 344.345 21280.8 29669.8 
207 8.5512 8.5512 0 0.0260463 0.0260463 -8.22872e-06 354.831 23172.8 32276.8 
247 8.8464 8.8464 0 0.0272678 0.0272678 -8.67601e-05 371.047 26289.2 37231.4 
287 9.0808 9.0808 0 0.0291864 0.0291864 -2.26016e-05 396.759 39617.9 56238.4 
327 0.8158 0.8158 0 0.00444787 0.00444787 -7.92326e-06 457.134 131746 192981 
367 9.1072 9.1072 0 0.0293823 0.0293823 0.000100793 398.177 40893.5 57260.9 
407 8.7786 8.7786 0 0.0273793 0.0273793 -8.47082e-05 371.378 29470.7 41034.3 
447 8.466 8.466 0 0.0260851 0.0260851 4.44937e-05 354.57 23454 32904.4 
487 8.1624 8.1624 0 0.024844 0.024844 -0.000107371 338.278 19909.9 28174 
527 7.7856 7.7856 0 0.0234771 0.0234771 8.35872e-05 319.799 16862.8 24126.5 
567 7.2676 7.2676 0 0.0221373 0.0221373 -9.5807e-05 297.865 16458.6 23686.5 
607 6.2324 6.2324 0 0.0197318 0.0197318 -6.26196e-05 259.244 17382.5 23917.1 
647 0.0468 0.0468 0 1.88874e-05 1.88874e-05 6.52653e-07 16.8731 1748.07 3082.1 
687 0.116 0.116 0 -0.000145718 -0.000145718 -1.49136e-06 4.217 481.606 626.816 
727 0.106 0.106 0 -0.000139381 -0.000139381 9.34609e-06 4.03033 554.657 670.847 
767 0.1068 0.1068 0 -0.000165351 -0.000165351 -4.65612e-07 4.20441 616.65 764.17 
807 0.116 0.116 0 -0.000246988 -0.000246988 1.90232e-05 4.70279 539.721 703.829 
847 0.1484 0.1484 0 -0.000374088 -0.000374088 3.14979e-05 6.14145 663.991 875.09 
887 0.2056 0.2056 0 -0.000577517 -0.000577517 -2.09808e-05 8.79406 720.056 1035.66 
927 0.2632 0.2632 0 -0.00077444 -0.00077444 2.85136e-06 10.9923 823.285 1264.73 
967 0.0208 0.0208 0 -7.56655e-05 -7.56655e-05 -2.07227e-08 8.94826 541.032 827.26 
1007 0.243 0.243 0 -0.000715592 -0.000715592 -2.1375e-05 10.2248 648.485 1002.1 
1047 0.1892 0.1892 0 -0.000519769 -0.000519769 -1.61949e-05 7.94714 746.85 1021.67 
1087 0.1392 0.1392 0 -0.000331229 -0.000331229 1.30157e-05 5.64651 568.241 741.841 
1127 0.11 0.11 0 -0.000196738 -0.000196738 2.10051e-05 4.43918 659.789 815.627 
1167 0.099 0.099 0 -0.000139591 -0.000139591 1.67549e-05 3.79528 594.15 722.122 
1207 0.095 0.095 0 -0.000127528 -0.000127528 -2.07423e-06 3.77236 562.324 663.327 
1247 0.1136 0.1136 0 -0.000124117 -0.000124117 -1.48146e-05 4.00947 517.748 659.517 
8 0.118 0.118 0 0.00022854 0.00022854 -1.01177e-06 45.9686 5058.39 7536.68 
48 6.387 6.387 0 0.0200109 0.0200109 -3.89761e-05 263.804 16060.5 22644.6 
88 7.3064 7.3064 0 0.0221967 0.0221967 5.80774e-06 300.039 16565.4 23489 
128 7.7698 7.7698 0 0.0234971 0.0234971 -7.13334e-06 319.825 18572 25890.4 
168 8.1402 8.1402 0 0.0248422 0.0248422 9.5967e-05 337.856 20832.5 28636.1 
208 8.4832 8.4832 0 0.026059 0.026059 -4.55839e-05 354.566 24515.3 34262.2 
248 8.8554 8.8554 0 0.0275062 0.0275062 -1.96514e-06 375.989 30459.5 41486 
288 9.16 9.16 0 0.0295875 0.0295875 -1.43079e-05 401.137 41078.8 58369.3 
328 0.828 0.828 0 0.00440755 0.00440755 2.81377e-05 461.781 137779 197845 
368 9.1178 9.1178 0 0.0289173 0.0289173 -1.1091e-05 393.21 36246 51526.8 
408 8.8642 8.8642 0 0.0273437 0.0273437 6.50422e-05 371.545 26334.6 37003 
448 8.4996 8.4996 0 0.0260302 0.0260302 2.14865e-05 353.192 22183.3 31572.1 
488 8.1882 8.1882 0 0.0250409 0.0250409 6.22005e-05 337.915 21045.2 29760.9 
528 7.7652 7.7652 0 0.0238528 0.0238528 1.86842e-05 322.776 20295.6 28323 
568 7.157 7.157 0 0.022052 0.022052 9.40395e-05 296.851 17569.4 24851.7 
608 6.0394 6.0394 0 0.0192119 0.0192119 7.71217e-06 252.315 16234.7 22835 
648 0.0418 0.0418 0 -7.32953e-06 -7.32953e-06 5.05973e-06 15.2631 976.605 1638.75 
688 0.1052 0.1052 0 -0.000127485 -0.000127485 -1.14392e-05 3.67064 469.886 623.119 
728 0.0928 0.0928 0 -0.000114677 -0.000114677 -3.95775e-06 3.45226 494.229 617.393 
768 0.1088 0.1088 0 -0.000159015 -0.000159015 -8.83488e-06 4.11282 654.879 775.756 
808 0.115 0.115 0 -0.000229976 -0.000229976 -5.80685e-06 4.61494 638.065 767.455 
848 0.1524 0.1524 0 -0.000389603 -0.000389603 8.94481e-06 6.42243 681.621 987.092 
888 0.2084 0.2084 0 -0.000606606 -0.000606606 1.49551e-05 8.95965 662.9 866.49 
928 0.2524 0.2524 0 -0.000751988 -0.000751988 -2.13898e-06 10.6962 874.821 1146.25 
968 0.0264 0.0264 0 -8.86441e-05 -8.86441e-05 -7.02194e-06 10.9608 1377.04 1822.04 
1008 0.2412 0.2412 0 -0.000692123 -0.000692123 3.59114e-06 10.1894 704.506 984.851 
1048 0.1836 0.1836 0 -0.000497825 -0.000497825 -9.97164e-06 7.54477 646.648 804.34 
1088 0.1352 0.1352 0 -0.000315819 -0.000315819 -1.37682e-05 5.42536 612.74 756.53 
1128 0.1064 0.1064 0 -0.000194486 -0.000194486 -1.68919e-06 4.26663 463.173 595.543 
1168 0.0986 0.0986 0 -0.000146696 -0.000146696 1.38584e-05 3.79775 521.61 607.333 
1208 0.096 0.096 0 -0.00011842 -0.00011842 -9.89906e-07 3.52251 584.057 675.761 
1248 0.126 0.126 0 -0.000155625 -0.000155625 -7.3764e-06 4.62319 581.985 776.284 
9 0.1372 0.1372 0 0.000309032 0.000309032 -8.44247e-06 54.2873 7122.94 9668.85 
49 6.366 6.366 0 0.0201321 0.0201321 4.94975e-05 265.799 16966.3 23919.6 
89 7.3228 7.3228 0 0.0226347 0.0226347 5.5139e-05 303.152 18565.4 25681.8 
129 7.8164 7.8164 0 0.0239847 0.0239847 2.36011e-05 323.071 19583 27537.7 
169 8.231 8.231 0 0.0249849 0.0249849 4.76377e-05 339.739 19986.3 28573.3 
209 8.5814 8.5814 0 0.0261827 0.0261827 9.58143e-05 356.471 22421.8 31619.6 
249 8.7818 8.7818 0 0.0270688 0.0270688 -8.25023e-05 368.087 26952.5 37897.7 
289 8.9868 8.9868 0 0.0291019 0.0291019 -3.22522e-05 395.907 42026.1 58984.6 
329 0.8266 0.8266 0 0.00429676 0.00429676 3.27358e-05 462.965 137659 192742 
369 9.08 9.08 0 0.0293022 0.0293022 -6.11945e-05 396.3 40191.6 55946.3 
409 8.7386 8.7386 0 0.0272282 0.0272282 -7.90512e-05 369.819 29235.7 40234.1 
449 8.415 8.415 0 0.0256966 0.0256966 6.88977e-05 350.169 23545.8 32545.2 
489 8.1532 8.1532 0 0.0245544 0.0245544 2.95527e-05 334.59 18980.5 26790.8 
529 7.6914 7.6914 0 0.0232932 0.0232932 -8.72691e-05 315.395 17236.7 24221.3 
569 7.2642 7.2642 0 0.0223199 0.0223199 -5.08373e-05 298.674 17873.2 24729.6 
609 6.1496 6.1496 0 0.0195208 0.0195208 1.69304e-05 256.612 16721.9 23690.6 
649 0.0246 0.0246 0 -3.04974e-07 -3.04974e-07 5.96109e-06 8.71961 1227.7 1954.66 
689 0.104 0.104 0 -0.000124014 -0.000124014 2.77299e-05 3.63617 500.338 633.919 
729 0.1082 0.1082 0 -0.000134569 -0.000134569 1.10894e-05 4.13238 674.334 834.194 
769 0.1012 0.1012 0 -0.000155253 -0.000155253 1.3471e-06 3.93456 620.165 718.823 
809 0.1102 0.1102 0 -0.000197342 -0.000197342 -6.15984e-06 4.31936 620.503 793.265 
849 0.1554 0.1554 0 -0.000392709 -0.000392709 -1.43014e-05 6.51476 747.633 987.224 
889 0.211 0.211 0 -0.000575361 -0.000575361 -2.08354e-05 8.80566 767.561 1097.15 
929 0.2448 0.2448 0 -0.000739602 -0.000739602 1.99544e-05 10.4977 775.488 1124.92 
969 0.0228 0.0228 0 -7.19782e-05 -7.19782e-05 3.4851e-07 10.3689 883.186 1280.7 
1009 0.242 0.242 0 -0.000699884 -0.000699884 -3.278e-06 10.1875 855.129 1245.13 
1049 0.1876 0.1876 0 -0.000514035 -0.000514035 -1.98384e-05 7.79941 629.477 838.607 
1089 0.147 0.147 0 -0.000342612 -0.000342612 -3.07137e-06 6.06619 634.062 859.854 
1129 0.1066 0.1066 0 -0.000203305 -0.000203305 7.36247e-08 4.24029 560.756 684.873 
1169 0.1008 0.1008 0 -0.000147148 -0.000147148 5.02762e-06 3.88382 637.18 708.598 
1209 0.1074 0.1074 0 -0.000156543 -0.000156543 1.57734e-05 4.03382 587.073 690.875 
1249 0.119 0.119 0 -0.000142831 -0.000142831 -3.03986e-06 4.11854 516.222 728.841 
10 0.168 0.168 0 0.000415813 0.000415813 1.90086e-05 68.6573 8785.12 11441.5 
50 6.4328 6.4328 0 0.0199353 0.0199353 5.67684e-05 264.282 16365.5 22853.9 
90 7.2938 7.2938 0 0.0222919 0.0222919 2.60037e-05 300.118 16489.4 23182.8 
130 7.8498 7.8498 0 0.0238165 0.0238165 7.36939e-05 324.284 18206.6 25817 
170 8.1498 8.1498 0 0.025 0.025 -5.04215e-05 340.268 21467.9 29947.3 
210 8.4594 8.4594 0 0.0263336 0.0263336 1.20169e-06 356.526 25026.6 34871.9 
250 8.8174 8.8174 0 0.0276341 0.0276341 -7.03051e-05 373.732 29342.7 41225.1 
290 9.1958 9.1958 0 0.0298469 0.0298469 -0.000132121 403.802 43000.9 60160.6 
330 0.838 0.838 0 0.00420082 0.00420082 1.02209e-05 467.617 136389 196053 
370 9.0274 9.0274 0 0.0286358 0.0286358 3.28946e-05 390.023 34995.5 49537.5 
410 8.8176 8.8176 0 0.0272515 0.0272515 -8.06389e-05 369.639 26689.3 37327.5 
450 8.512 8.512 0 0.0260699 0.0260699 -5.19738e-05 354.101 23004.1 32294.2 
490 8.169 8.169 0 0.0251304 0.0251304 0.000177712 340.063 21332 29505.2 
530 7.7244 7.7244 0 0.0235897 0.0235897 -4.58564e-05 319.047 19468 26650.4 
570 7.1284 7.1284 0 0.0219723 0.0219723 -8.21161e-05 295.305 17470.4 24840.7 
610 6.1126 6.1126 0 0.019338 0.019338 -2.18947e-05 253.415 16148.3 22839.3 
650 0.025 0.025 0 -1.72157e-05 -1.72157e-05 3.50436e-06 8.46682 855.253 1472.22 
690 0.1194 0.1194 0 -0.000130585 -0.000130585 1.02951e-05 4.29827 632.563 781.1 
730 0.0932 0.0932 0 -0.000142761 -0.000142761 6.74499e-06 3.63841 519.737 613.42 
770 0.1016 0.1016 0 -0.000153466 -0.000153466 -3.65301e-06 3.95758 645.778 791.899 
810 0.123 0.123 0 -0.000227283 -0.000227283 -1.06105e-05 4.91851 690.232 789.258 
850 0.1544 0.1544 0 -0.00037784 -0.00037784 2.2396e-05 6.38379 604.935 776.764 
890 0.2126 0.2126 0 -0.000617909 -0.000617909 4.71456e-06 9.00015 744.281 953.894 
930 0.266 0.266 0 -0.00081055 -0.00081055 6.58731e-06 11.5434 938.485 1282.69 
970 0.0682 0.0682 0 -0.000221361 -0.000221361 -7.992e-06 11.7461 1089.62 1513.08 
1010 0.2324 0.2324 0 -0.00067708 -0.00067708 6.3651e-06 9.79943 775.992 1021.74 
1050 0.1874 0.1874 0 -0.000522861 -0.000522861 -1.54583e-05 8.03384 840.21 1071.71 
1090 0.1354 0.1354 0 -0.000303051 -0.000303051 1.11688e-06 5.52139 640.562 804.081 
1130 0.1068 0.1068 0 -0.000177377 -0.000177377 9.43011e-06 4.17385 689.229 838.162 
1170 0.1028 0.1028 0 -0.000144781 -0.000144781 -6.87794e-08 3.91214 604.388 719.41 
1210 0.1054 0.1054 0 -0.000128407 -0.000128407 -3.44726e-06 3.96621 540.702 686.938 
1250 0.1198 0.1198 0 -0.00013708 -0.00013708 -5.11923e-06 4.1769 496.716 689.798 
11 0.2014 0.2014 0 0.000608221 0.000608221 4.61343e-06 85.8071 12637.9 17081.8 
51 6.4544 6.4544 0 0.0203794 0.0203794 -3.58222e-05 268.514 17725 24757.8 
91 7.3602 7.3602 0 0.0226364 0.0226364 -1.82728e-05 303.365 18205.6 24809 
131 7.8686 7.8686 0 0.0238199 0.0238199 -3.64817e-05 323.613 18504.6 26148.9 
171 8.2802 8.2802 0 0.0250352 0.0250352 -4.9949e-05 340.303 19355.4 27667.1 
211 8.5456 8.5456 0 0.026007 0.026007 1.97455e-05 354.353 22709.1 31640.8 
251 8.8126 8.8126 0 0.0273669 0.0273669 -6.69567e-05 372.504 27927.4 39383.2 
291 9.0398 9.0398 0 0.0295221 0.0295221 6.94605e-05 398.535 43381.1 61574.1 
331 0.8358 0.8358 0 0.00396517 0.00396517 -9.99194e-06 463.782 129910 186158 
371 8.9786 8.9786 0 0.0288688 0.0288688 -0.00017124 391.67 38628.6 54444.4 
411 8.5916 8.5916 0 0.0267021 0.0267021 5.06142e-05 363.963 27836.9 39216.4 
451 8.4546 8.4546 0 0.0257741 0.0257741 -9.62974e-05 351.301 22293.3 31528.6 
491 8.1586 8.1586 0 0.0246313 0.0246313 -5.18264e-05 334.639 18573.5 26463.4 
531 7.7018 7.7018 0 0.0232934 0.0232934 2.02871e-05 316.436 16980.6 24590.1 
571 7.2178 7.2178 0 0.022096 0.022096 6.6058e-05 296.491 17770.3 24566.6 
611 6.055 6.055 0 0.0194175 0.0194175 1.73681e-05 251.534 17292.7 23783.8 
651 0.0188 0.0188 0 -1.59712e-05 -1.59712e-05 1.80544e-06 5.99455 527.028 755.697 
691 0.1164 0.1164 0 -0.000136434 -0.000136434 1.2353e-05 4.24844 588.911 772.952 
731 0.0912 0.0912 0 -0.000115363 -0.000115363 -1.39483e-05 3.41871 541.098 644.073 
771 0.1012 0.1012 0 -0.000163721 -0.000163721 1.01836e-05 3.97669 506.549 578.42 
811 0.1092 0.1092 0 -0.000226602 -0.000226602 8.13914e-06 4.46592 522.191 640.449 
851 0.1606 0.1606 0 -0.000396082 -0.000396082 -4.75677e-07 6.49736 699.491 900.747 
891 0.2104 0.2104 0 -0.000579219 -0.000579219 -1.8298e-05 8.73381 751.538 962.543 
931 0.2496 0.2496 0 -0.000740468 -0.000740468 -1.43143e-05 10.6444 838.206 1117.65 
971 0.0636 0.0636 0 -0.00020444 -0.00020444 5.95104e-06 11.6103 1052.8 1327.68 
1011 0.2418 0.2418 0 -0.000726075 -0.000726075 -3.96534e-07 10.1191 804.864 1096.57 
1051 0.1902 0.1902 0 -0.000513157 -0.000513157 -3.51299e-06 7.81473 683.414 953.187 
1091 0.1318 0.1318 0 -0.000294478 -0.000294478 -2.44967e-05 5.46351 534.421 740.135 
1131 0.106 0.106 0 -0.000186771 -0.000186771 -1.71774e-06 4.23895 545.445 661.66 
1171 0.1032 0.1032 0 -0.000150613 -0.000150613 7.2344e-06 3.99016 566.018 683.871 
1211 0.1082 0.1082 0 -0.000141256 -0.000141256 1.65225e-05 3.97479 603.521 783.279 
1251 0.1238 0.1238 0 -0.000127798 -0.000127798 1.95795e-05 4.26551 657.968 867.068 
12 0.222 0.222 0 0.000702471 0.000702471 6.20624e-06 94.6883 12098.3 15890 
52 6.4764 6.4764 0 0.020058 0.020058 -6.47815e-05 266.824 15381.7 22099.4 
92 7.3992 7.3992 0 0.0225395 0.0225395 0.000126655 304.599 16612.5 23746.3 
132 7.7118 7.7118 0 0.0234396 0.0234396 6.17281e-05 318.148 18025.2 25593 
172 8.1924 8.1924 0 0.0251657 0.0251657 3.91728e-05 341.274 21428.3 29643.1 
212 8.544 8.544 0 0.0263072 0.0263072 -7.11884e-05 358.646 26025.2 35943.8 
252 8.946 8.946 0 0.0278833 0.0278833 -7.77463e-05 378.709 30320.8 42679.9 
292 9.1976 9.1976 0 0.0297077 0.0297077 6.19451e-05 404.076 42720.1 59670.4 
332 0.8498 0.8498 0 0.00377066 0.00377066 8.56855e-05 466.889 130040 182130 
372 9.0856 9.0856 0 0.0286297 0.0286297 2.44077e-05 389.316 33892.2 48011.4 
412 8.8412 8.8412 0 0.0272444 0.0272444 0.000126161 369.543 26733.2 37828.9 
452 8.4626 8.4626 0 0.0260297 0.0260297 5.52364e-05 352.339 23049.1 32342.2 
492 8.1072 8.1072 0 0.0249019 0.0249019 3.8636e-05 336.199 21232.3 29607.1 
532 7.6638 7.6638 0 0.0234693 0.0234693 -7.2609e-05 317.494 19745.6 27516.6 
572 7.0876 7.0876 0 0.0218484 0.0218484 -3.15974e-05 293.389 17047.1 23910.9 
612 5.9816 5.9816 0 0.019049 0.019049 2.23191e-05 248.457 16057.7 22616.1 
652 0.0438 0.0438 0 -5.35441e-05 -5.35441e-05 -4.47683e-06 5.69693 294.069 513.45 
692 0.1028 0.1028 0 -0.000125572 -0.000125572 4.92115e-06 3.68693 645.342 719.425 
732 0.1028 0.1028 0 -0.000128214 -0.000128214 -1.7119e-06 3.88231 643.017 793.446 
772 0.0996 0.0996 0 -0.000149706 -0.000149706 1.31438e-05 3.81907 580.97 717.977 
812 0.1168 0.1168 0 -0.000225055 -0.000225055 -6.41641e-06 4.6063 571.328 676.881 
852 0.1546 0.1546 0 -0.000383773 -0.000383773 5.70953e-06 6.35617 693.392 923.539 
892 0.214 0.214 0 -0.00063006 -0.00063006 -2.37636e-06 9.00922 744.958 1044.7 