ITEM: TIMESTEP
25000
ITEM: NUMBER OF SURFS
1272
ITEM: BOX BOUNDS oo rr pp
0 0.3
0 0.3
-0.5 0.5
ITEM: SURFS id f_4[1] f_4[2] f_4[3] f_4[4] f_4[5] f_4[6] f_4[7] f_4[8] f_4[9] 
1 0.2054 0.2054 0 0.000828989 0.000828989 9.77852e-06 99.9886 25020.8 36053.3 
41 10.4354 10.4354 0 0.038633 0.038633 -0.000107257 447.41 39629.7 56675.2 
81 10.39 10.39 0 0.0381097 0.0381097 -3.85269e-05 437.141 31567.7 44095.7 
121 10.16 10.16 0 0.0368233 0.0368233 2.98039e-05 420.535 24807.4 34993.8 
161 9.6776 9.6776 0 0.0349324 0.0349324 -4.54289e-05 397.831 22192.1 31936.7 
201 9.338 9.338 0 0.0340549 0.0340549 -2.2071e-06 386.587 23798.3 33143.4 
241 8.7682 8.7682 0 0.03218 0.03218 -7.08739e-05 362.714 21201.6 29431.9 
281 7.6458 7.6458 0 0.0284098 0.0284098 8.7108e-05 317.42 20018.6 28735.7 
321 0.2734 0.2734 0 0.00109747 0.00109747 -8.24824e-06 119.613 19337.9 24834.6 
361 0.1964 0.1964 0 -3.45864e-05 -3.45864e-05 9.25236e-06 7.35791 1228.55 1529.53 
401 0.169 0.169 0 -7.54435e-05 -7.54435e-05 1.20372e-05 6.58047 1068.65 1312.89 
441 0.183 0.183 0 -0.000135435 -0.000135435 1.01439e-05 7.61494 1221.26 1447.37 
481 0.1732 0.1732 0 -0.000117551 -0.000117551 1.51279e-05 7.11253 1120.52 1328.43 
521 0.175 0.175 0 -0.000142249 -0.000142249 -1.83727e-05 7.45544 1153.21 1474.13 
561 0.164 0.164 0 -0.000156377 -0.000156377 3.24652e-06 7.08901 1099.48 1330.28 
601 0.1912 0.1912 0 -0.000224637 -0.000224637 2.13272e-05 8.25081 1078.81 1361.08 
641 0.0148 0.0148 0 -4.41531e-05 -4.41531e-05 -1.76659e-06 5.40676 737.754 990.962 
681 0.216 0.216 0 -0.000780247 -0.000780247 6.41051e-06 9.35082 744.711 1117.63 
721 0.2272 0.2272 0 -0.000842066 -0.000842066 -2.02434e-05 9.66659 672.182 994.169 
761 0.2002 0.2002 0 -0.000738554 -0.000738554 1.17635e-06 8.45869 677.479 925.387 
801 0.1476 0.1476 0 -0.000524766 -0.000524766 7.42122e-07 6.15544 647.183 772.488 
841 0.1036 0.1036 0 -0.000315225 -0.000315225 4.74142e-06 4.08863 402.746 553.818 
881 0.072 0.072 0 -0.000189788 -0.000189788 4.68517e-06 2.68824 253.925 343.17 
921 0.0642 0.0642 0 -0.000136143 -0.000136143 2.11962e-06 2.15498 245.65 412.588 
961 0.0578 0.0578 0 3.93759e-05 3.93759e-05 -1.32614e-05 21.8234 2700.99 3845.48 
1001 3.7524 3.7524 0 0.00910805 0.00910805 0.000100069 156.945 11353.2 16403.2 
1041 4.0842 4.0842 0 0.00964167 0.00964167 1.59955e-05 172.182 12958.4 18371.8 
1081 4.2104 4.2104 0 0.00975026 0.00975026 -0.000156938 177.22 13231.8 18817.6 
1121 4.3142 4.3142 0 0.0101547 0.0101547 -9.53569e-05 182.798 15052.3 21367 
1161 4.3186 4.3186 0 0.0105306 0.0105306 8.00178e-05 186.008 18316.5 25372.9 
1201 4.1122 4.1122 0 0.0103204 0.0103204 -6.51919e-05 181.137 19670.1 28231.3 
1241 3.8622 3.8622 0 0.0103654 0.0103654 5.88493e-05 175.871 24980.5 35439.8 
2 0.2266 0.2266 0 0.000989806 0.000989806 -2.16464e-05 110.99 26700 40809.3 
42 10.2174 10.2174 0 0.0384459 0.0384459 6.449e-05 446.178 45325 62982.9 
82 10.4354 10.4354 0 0.0381862 0.0381862 4.76075e-06 437.376 30207.2 42042.7 
122 10.0896 10.0896 0 0.0367324 0.0367324 6.29461e-05 419.522 26077.2 37059.2 
162 9.793 9.793 0 0.0355872 0.0355872 -3.01967e-05 406.121 24704.4 34405.2 
202 9.4354 9.4354 0 0.0341001 0.0341001 -7.51986e-05 386.946 20739.3 29614.6 
242 8.7416 8.7416 0 0.0318116 0.0318116 0.000119761 359.184 19232 27848.1 
282 7.7026 7.7026 0 0.0286981 0.0286981 -0.000100399 319.45 21940 30441.4 
322 0.2556 0.2556 0 0.000943313 0.000943313 -1.35208e-05 107.892 16042.1 20990.8 
362 0.1712 0.1712 0 -5.53143e-05 -5.53143e-05 -7.17475e-06 6.49892 1008.17 1234.13 
402 0.1784 0.1784 0 -7.03364e-05 -7.03364e-05 3.6979e-06 6.98136 1181.71 1510.31 
442 0.175 0.175 0 -0.000104011 -0.000104011 -2.03862e-05 7.1587 1191.12 1338.22 
482 0.1622 0.1622 0 -0.000122329 -0.000122329 -1.07378e-05 6.7084 971.401 1234.04 
522 0.166 0.166 0 -0.000113525 -0.000113525 1.73212e-05 6.81454 1043.31 1304.76 
562 0.179 0.179 0 -0.000174549 -0.000174549 -1.11397e-05 7.56716 1213.42 1458.72 
602 0.1994 0.1994 0 -0.000241754 -0.000241754 -4.38986e-07 8.78464 1200.49 1542.39 
642 0.014 0.014 0 -4.73466e-05 -4.73466e-05 2.79481e-06 5.46649 515.116 697.658 
682 0.2286 0.2286 0 -0.000842312 -0.000842312 1.92873e-05 9.9113 804.773 1170.71 
722 0.2132 0.2132 0 -0.000772378 -0.000772378 6.53916e-08 8.91415 519.666 792.651 
762 0.1926 0.1926 0 -0.000709057 -0.000709057 -1.97675e-05 8.05414 581.687 787.394 
802 0.1604 0.1604 0 -0.00057499 -0.00057499 1.37014e-05 6.7094 529.942 725.077 
842 0.105 0.105 0 -0.000320867 -0.000320867 -1.86939e-06 4.12317 415.219 604.715 
882 0.074 0.074 0 -0.000181773 -0.000181773 7.759e-06 2.74804 344.552 489.38 
922 0.0584 0.0584 0 -0.000122955 -0.000122955 -1.29684e-06 2.06104 251.792 288.157 
962 0.0682 0.0682 0 6.62441e-05 6.62441e-05 -2.31515e-08 26.8228 3714.96 5109.75 
1002 3.7296 3.7296 0 0.0092319 0.0092319 5.78499e-05 158.212 12654.7 17482.6 
1042 4.1354 4.1354 0 0.00963795 0.00963795 -3.68063e-06 173.048 11783 17404.9 
1082 4.2408 4.2408 0 0.00993509 0.00993509 9.56657e-05 178.246 13623 19769.9 
1122 4.3482 4.3482 0 0.0103907 0.0103907 -5.2066e-05 185.066 16289.2 22641.2 
1162 4.2768 4.2768 0 0.0103242 0.0103242 -0.000138875 183.868 17008.3 24399.5 
1202 4.231 4.231 0 0.0106197 0.0106197 -0.000100585 185.564 19676.9 28168.6 
1242 3.7506 3.7506 0 0.010223 0.010223 4.43126e-05 171.388 25602.7 35774.4 
3 0.2458 0.2458 0 0.0011341 0.0011341 3.81358e-06 119.77 31487.1 46070.5 
43 10.255 10.255 0 0.0378093 0.0378093 -6.1608e-07 438.161 37944.7 53948.7 
83 10.4356 10.4356 0 0.0380023 0.0380023 3.23276e-05 436.496 29503.9 41934.9 
123 10.066 10.066 0 0.0369462 0.0369462 0.000148518 421.207 28185.4 39271.6 
163 9.9136 9.9136 0 0.0359548 0.0359548 2.54377e-05 408.25 22772.5 31866.1 
203 9.305 9.305 0 0.0336888 0.0336888 -0.000106652 382.089 21490.4 30074 
243 8.5408 8.5408 0 0.0315251 0.0315251 0.00010447 355.316 22747.6 31733.2 
283 7.761 7.761 0 0.0288182 0.0288182 -7.12504e-05 322.174 20142.6 28295.1 
323 0.2186 0.2186 0 0.000787568 0.000787568 -6.93228e-06 95.5447 13541.7 17669 
363 0.178 0.178 0 -7.05458e-05 -7.05458e-05 -4.71734e-06 6.79032 841.564 1150.02 
403 0.1846 0.1846 0 -6.29416e-05 -6.29416e-05 1.13748e-05 7.4029 1325.53 1537.08 
443 0.1816 0.1816 0 -0.000120397 -0.000120397 2.58404e-05 7.46379 1185.69 1489.01 
483 0.1702 0.1702 0 -0.000106868 -0.000106868 3.58581e-06 7.30688 1408.36 1659.66 
523 0.165 0.165 0 -0.000136257 -0.000136257 2.90833e-05 6.97324 1078.76 1385.86 
563 0.1756 0.1756 0 -0.000165807 -0.000165807 8.78793e-06 7.36992 1153.42 1497.59 
603 0.1938 0.1938 0 -0.000227357 -0.000227357 -3.8191e-06 8.2597 1153.28 1421.98 
643 0.0154 0.0154 0 -5.57141e-05 -5.57141e-05 -2.01573e-06 6.17987 1055.51 1362.38 
683 0.2202 0.2202 0 -0.000805733 -0.000805733 -2.03936e-05 9.42014 695.076 990.604 
723 0.2292 0.2292 0 -0.000861024 -0.000861024 -3.5939e-06 9.97821 697.064 974.889 
763 0.197 0.197 0 -0.000715041 -0.000715041 -4.72409e-06 8.20782 553.9 841.178 
803 0.1496 0.1496 0 -0.000519129 -0.000519129 8.68448e-06 6.20898 567.698 834.433 
843 0.1022 0.1022 0 -0.000317383 -0.000317383 -1.06146e-05 4.05235 443.219 581.976 
883 0.0626 0.0626 0 -0.000162509 -0.000162509 9.1347e-06 2.38449 305.3 386.335 
923 0.0562 0.0562 0 -0.000110286 -0.000110286 1.03049e-05 1.90284 287.19 347.348 
963 0.0824 0.0824 0 0.000109612 0.000109612 2.50219e-06 32.4918 3874.42 5175.25 
1003 3.6928 3.6928 0 0.00896555 0.00896555 1.75637e-05 156.13 12161.6 16800 
1043 4.0802 4.0802 0 0.00950402 0.00950402 6.15989e-05 170.271 12348.9 17464 
1083 4.197 4.197 0 0.00996494 0.00996494 -3.45303e-05 177.62 14209.7 20023.3 
1123 4.2094 4.2094 0 0.00997405 0.00997405 -2.34112e-05 179.141 14987 21364.4 
1163 4.2782 4.2782 0 0.0104482 0.0104482 -8.33573e-05 184.429 16334.7 23470 
1203 4.2216 4.2216 0 0.0106216 0.0106216 1.01949e-05 186.56 21178.1 29729.5 
1243 3.786 3.786 0 0.0102481 0.0102481 -3.55519e-05 173.341 25082.7 35717.2 
4 0.2894 0.2894 0 0.00138006 0.00138006 -1.45128e-05 141.448 33044 48614.2 
44 10.2988 10.2988 0 0.0382849 0.0382849 4.04372e-05 442.999 39942.4 55683.7 
84 10.3032 10.3032 0 0.0382009 0.0382009 0.000150445 435.815 32612.7 45178.5 
124 10.297 10.297 0 0.0373769 0.0373769 -7.43887e-05 426.569 25561.1 36220.3 
164 9.7766 9.7766 0 0.0351375 0.0351375 -2.00484e-05 400.399 22657.5 31730.7 
204 9.3218 9.3218 0 0.0339325 0.0339325 0.000258421 384.512 22409.9 31677.4 
244 8.736 8.736 0 0.0318498 0.0318498 0.000162503 359.601 20392.2 28607 
284 7.5344 7.5344 0 0.0279151 0.0279151 3.22386e-05 311.449 20092.6 28578.2 
324 0.1764 0.1764 0 0.0005807 0.0005807 -3.13204e-05 74.2241 9962.86 13324.3 
364 0.183 0.183 0 -6.5985e-05 -6.5985e-05 5.78484e-06 7.09136 1086.67 1374.09 
404 0.17 0.17 0 -0.000103429 -0.000103429 -2.50122e-05 7.02402 1019.68 1234.1 
444 0.1788 0.1788 0 -0.000108233 -0.000108233 -1.36362e-06 7.39462 1244.81 1499.9 
484 0.1698 0.1698 0 -0.00011227 -0.00011227 6.01963e-06 7.05367 1236.37 1456.33 
524 0.1738 0.1738 0 -0.000146014 -0.000146014 1.31523e-06 7.2162 1119.34 1462.64 
564 0.1892 0.1892 0 -0.000193279 -0.000193279 -1.53239e-05 8.03343 1150.78 1394.13 
604 0.1938 0.1938 0 -0.000235093 -0.000235093 -1.17472e-05 8.05849 1152.33 1436.01 
644 0.0118 0.0118 0 -4.93831e-05 -4.93831e-05 -4.40118e-07 5.04086 303.39 601.499 
684 0.2146 0.2146 0 -0.000769387 -0.000769387 -8.75009e-06 9.08324 738.578 1001 
724 0.2222 0.2222 0 -0.0008081 -0.0008081 1.49316e-05 9.2821 677.056 909.794 
764 0.1978 0.1978 0 -0.000719654 -0.000719654 5.53658e-06 8.2353 644.992 950.025 
804 0.1432 0.1432 0 -0.000513586 -0.000513586 9.96853e-06 6.06269 574.984 743.544 
844 0.103 0.103 0 -0.000315668 -0.000315668 -1.35956e-05 4.10277 384.048 583.942 
884 0.0764 0.0764 0 -0.000204188 -0.000204188 -3.34892e-06 2.8562 251.011 369.531 
924 0.0606 0.0606 0 -0.000112556 -0.000112556 -4.32548e-06 1.98076 287.59 385.654 
964 0.1058 0.1058 0 0.000185468 0.000185468 1.18306e-05 43.2806 7638.06 9154.77 
1004 3.8322 3.8322 0 0.00927503 0.00927503 3.83621e-05 160.677 12161.8 17480.2 
1044 4.1742 4.1742 0 0.00994133 0.00994133 -3.02779e-05 176.162 14052.7 19408.1 
1084 4.1616 4.1616 0 0.00972416 0.00972416 1.50837e-05 176.952 13187.8 18776.8 
1124 4.3594 4.3594 0 0.0104658 0.0104658 -7.85288e-05 185.479 15067.9 21192.4 
1164 4.3192 4.3192 0 0.010557 0.010557 8.86973e-06 186.869 18778.4 26154.3 
1204 4.2176 4.2176 0 0.0105709 0.0105709 7.04985e-05 185.02 20238.9 28923.9 
1244 3.7548 3.7548 0 0.0100984 0.0100984 1.00374e-05 170.871 25213.4 35344.8 
5 0.3336 0.3336 0 0.00164237 0.00164237 -8.71042e-06 163.995 40693.7 58656.4 
45 10.4054 10.4054 0 0.0388427 0.0388427 0.00012229 449.583 42100.4 58869.9 
85 10.4128 10.4128 0 0.0380335 0.0380335 -6.07783e-05 436.741 29886.6 42200.3 
125 10.0686 10.0686 0 0.0364902 0.0364902 -0.000128109 416.697 25595.3 35898.1 
165 9.6818 9.6818 0 0.035264 0.035264 -4.77996e-05 401.654 25169.9 34977.7 
205 9.3922 9.3922 0 0.0342833 0.0342833 1.62135e-05 387.552 21476.8 30733.2 
245 8.6932 8.6932 0 0.0318717 0.0318717 4.68512e-05 358.97 20839.6 29432 
285 7.5564 7.5564 0 0.0283307 0.0283307 -2.38353e-05 314.994 21666.8 29962.1 
325 0.166 0.166 0 0.000467325 0.000467325 1.07025e-05 68.8238 8594.46 12516.8 
365 0.174 0.174 0 -4.50093e-05 -4.50093e-05 6.62044e-06 6.71244 1031.7 1283.84 
405 0.181 0.181 0 -8.15097e-05 -8.15097e-05 -1.15951e-05 7.25896 1255.46 1519.69 
445 0.1638 0.1638 0 -0.000124628 -0.000124628 -1.77247e-06 6.66739 1018.48 1200.11 
485 0.1806 0.1806 0 -0.000126106 -0.000126106 -9.79507e-06 7.42301 1148.09 1427.64 
525 0.17 0.17 0 -0.000125995 -0.000125995 1.5904e-05 7.10552 1001.81 1308.38 
565 0.1786 0.1786 0 -0.000188308 -0.000188308 -2.45855e-05 7.51288 1129.03 1417.3 
605 0.2 0.2 0 -0.000263969 -0.000263969 -5.99127e-06 8.65671 1178.28 1531.01 
645 0.0136 0.0136 0 -5.70515e-05 -5.70515e-05 5.78698e-08 5.88564 246.188 440.46 
685 0.2274 0.2274 0 -0.000843885 -0.000843885 -1.48269e-05 9.76258 817.659 1232.52 
725 0.2264 0.2264 0 -0.00082959 -0.00082959 7.7862e-06 9.49896 730.393 1043.8 
765 0.192 0.192 0 -0.000711635 -0.000711635 1.28129e-05 8.16894 660.637 881.513 
805 0.1448 0.1448 0 -0.000501492 -0.000501492 -1.71301e-07 6.01943 586.806 725.139 
845 0.0948 0.0948 0 -0.000297087 -0.000297087 -5.57917e-07 3.83144 399.86 568.627 
885 0.0646 0.0646 0 -0.000165918 -0.000165918 -9.4842e-07 2.38873 330.1 450.406 
925 0.0648 0.0648 0 -0.000132596 -0.000132596 -3.38464e-06 2.2669 248.077 353.049 
965 0.1144 0.1144 0 0.000244543 0.000244543 -8.18948e-06 49.4104 8538.8 11201.2 
1005 3.7584 3.7584 0 0.00916421 0.00916421 -2.6635e-05 158.128 12350.9 17377.2 
1045 4.0916 4.0916 0 0.00955493 0.00955493 3.82212e-05 171.952 12805.2 17601.8 
1085 4.2298 4.2298 0 0.00988533 0.00988533 -4.30675e-05 178.811 12882.5 18885.1 
1125 4.3086 4.3086 0 0.0102923 0.0102923 1.85253e-05 183.272 15295.2 21704 
1165 4.2036 4.2036 0 0.0102319 0.0102319 3.42152e-05 181.279 16787.8 23733 
1205 4.2108 4.2108 0 0.0105664 0.0105664 -1.95921e-06 184.726 20350.6 29113.1 
1245 3.762 3.762 0 0.0103328 0.0103328 5.4557e-05 172.956 25800.4 37104.4 
6 0.3602 0.3602 0 0.00178482 0.00178482 -2.6221e-05 176.28 45465.4 65423.3 
46 10.384 10.384 0 0.0386217 0.0386217 0.000102675 445.432 38354.5 54342.5 
86 10.3476 10.3476 0 0.037724 0.037724 1.96828e-05 432.346 29231.1 41416.6 
126 10.1344 10.1344 0 0.0369288 0.0369288 -0.000194235 421.472 27053 37697.6 
166 9.7898 9.7898 0 0.035418 0.035418 0.000135678 402.9 21667.8 31350 
206 9.1634 9.1634 0 0.0332293 0.0332293 3.09159e-05 376.993 20456.7 29058.7 
246 8.5936 8.5936 0 0.0315887 0.0315887 -0.000131955 356.236 20882 29857.5 
286 7.578 7.578 0 0.0282337 0.0282337 0.000122613 314.751 20364.3 28355.8 
326 0.1278 0.1278 0 0.000312533 0.000312533 1.09059e-05 50.4393 6225.53 9263.52 
366 0.1726 0.1726 0 -5.58764e-05 -5.58764e-05 2.12677e-06 6.62548 1081.6 1353.39 
406 0.1674 0.1674 0 -8.33369e-05 -8.33369e-05 -1.76072e-05 6.58247 1066.83 1294.64 
446 0.1736 0.1736 0 -8.96779e-05 -8.96779e-05 -1.23188e-05 7.14876 1216.52 1444.75 
486 0.1714 0.1714 0 -0.000120552 -0.000120552 -1.57108e-05 7.09211 1245.27 1431.16 
526 0.1874 0.1874 0 -0.000139018 -0.000139018 -2.82859e-06 7.72464 1202.85 1406.65 
566 0.1868 0.1868 0 -0.000183174 -0.000183174 1.01482e-05 7.89326 1214.25 1518.51 
606 0.2028 0.2028 0 -0.000238768 -0.000238768 2.3444e-06 8.81233 1296.38 1604.76 
646 0.0168 0.0168 0 -6.62751e-05 -6.62751e-05 -4.10546e-08 6.74735 661.268 1125.43 
686 0.211 0.211 0 -0.000755752 -0.000755752 5.09923e-06 8.9333 701.267 979.164 
726 0.2298 0.2298 0 -0.000864259 -0.000864259 9.25713e-06 9.72264 779.124 1121.08 
766 0.1954 0.1954 0 -0.000713607 -0.000713607 1.19954e-05 8.16 547.211 807.057 
806 0.1504 0.1504 0 -0.000527296 -0.000527296 -2.38718e-06 6.22876 465.25 730.598 
846 0.1048 0.1048 0 -0.000317968 -0.000317968 -5.85028e-06 4.10838 436.339 588.271 
886 0.0632 0.0632 0 -0.000161725 -0.000161725 1.13301e-05 2.40576 265.568 337.329 
926 0.0634 0.0634 0 -0.000118862 -0.000118862 -8.05343e-07 2.07424 233.89 378.3 
966 0.1462 0.1462 0 0.000361251 0.000361251 -9.37564e-06 64.0558 8607.58 11782 
1006 3.787 3.787 0 0.00898086 0.00898086 -1.64391e-06 159.357 11864.3 16782 
1046 4.138 4.138 0 0.00965604 0.00965604 -7.64428e-05 173.387 12717.4 17798.6 
1086 4.2178 4.2178 0 0.0100621 0.0100621 7.6847e-05 180.053 14797.7 20735.3 
1126 4.259 4.259 0 0.0100611 0.0100611 3.09071e-05 181.526 15050.4 21696.7 
1166 4.239 4.239 0 0.0103493 0.0103493 3.16111e-05 182.626 16940.4 23979.8 
1206 4.1978 4.1978 0 0.0107536 0.0107536 -0.000131262 185.801 21103.9 29439.9 
1246 3.6694 3.6694 0 0.010011 0.010011 -1.81612e-05 168.575 25118.4 35508.5 
7 0.434 0.434 0 0.00226255 0.00226255 -9.11465e-06 222.163 56182.7 78052.8 
47 10.2568 10.2568 0 0.0381031 0.0381031 -4.08148e-05 441.012 38746 54602.2 
87 10.2726 10.2726 0 0.0378976 0.0378976 8.51959e-06 433.998 32123.1 44962.5 
127 10.1186 10.1186 0 0.0367946 0.0367946 -2.05177e-05 419.696 25865.1 36408.7 
167 9.7984 9.7984 0 0.0356963 0.0356963 -5.58299e-08 405.233 22995.8 32524.6 
207 9.2178 9.2178 0 0.0336762 0.0336762 -1.97347e-05 381.164 22553.3 31077.1 
247 8.7632 8.7632 0 0.032046 0.032046 6.40722e-05 361.276 20727.8 29046.2 
287 7.4374 7.4374 0 0.0277515 0.0277515 -6.94572e-06 308.288 19247.4 27358.7 
327 0.1054 0.1054 0 0.000223803 0.000223803 8.58592e-06 41.8666 5504.21 7257.16 
367 0.1752 0.1752 0 -4.42965e-05 -4.42965e-05 2.45546e-05 6.60811 993.131 1324.38 
407 0.1836 0.1836 0 -0.000101674 -0.000101674 6.1674e-06 7.40097 1079.08 1240.32 
447 0.1704 0.1704 0 -8.98183e-05 -8.98183e-05 -1.0387e-06 6.92151 1159.5 1420.75 
487 0.1682 0.1682 0 -0.000114845 -0.000114845 -2.22453e-05 6.98493 1071.58 1319.39 
527 0.168 0.168 0 -0.000149913 -0.000149913 1.06346e-05 6.99767 934.525 1151.98 
567 0.1814 0.1814 0 -0.000173987 -0.000173987 -2.66606e-06 7.65913 1131.41 1364.75 
607 0.2026 0.2026 0 -0.000268378 -0.000268378 -3.9945e-06 8.6562 991.945 1399 
647 0.0128 0.0128 0 -4.98273e-05 -4.98273e-05 1.16551e-07 5.06649 480.743 490.479 
687 0.2204 0.2204 0 -0.000805943 -0.000805943 1.38076e-05 9.34743 773.128 1123.46 
727 0.2242 0.2242 0 -0.000824838 -0.000824838 -5.26238e-06 9.38668 750.255 1086.64 
767 0.1954 0.1954 0 -0.000698584 -0.000698584 -1.19576e-05 8.17421 628.345 863.88 
807 0.15 0.15 0 -0.000517013 -0.000517013 5.45594e-06 6.29149 546.288 783.392 
847 0.0934 0.0934 0 -0.000295639 -0.000295639 8.78434e-06 3.79492 351.327 507.841 
887 0.0682 0.0682 0 -0.000170769 -0.000170769 7.03867e-07 2.5452 330.477 464.678 
927 0.064 0.064 0 -0.000131982 -0.000131982 -8.86507e-06 2.24569 262.572 358.59 
967 0.154 0.154 0 0.000428217 0.000428217 -4.77817e-06 66.9259 10742.1 13903.4 
1007 3.7694 3.7694 0 0.0090362 0.0090362 -2.70996e-05 158.577 11951 16629.1 
1047 4.1288 4.1288 0 0.00987743 0.00987743 7.18189e-05 174.418 13657 19261.3 
1087 4.2718 4.2718 0 0.0100425 0.0100425 7.56746e-06 180.525 13845.7 19552.7 
1127 4.2938 4.2938 0 0.0103587 0.0103587 -6.69653e-05 182.229 15984.9 22101.8 
1167 4.3008 4.3008 0 0.0105067 0.0105067 -2.69574e-06 187.092 18169.3 25540.7 
1207 4.1668 4.1668 0 0.0104729 0.0104729 7.46687e-05 184.065 20605.2 29025.3 
1247 3.6832 3.6832 0 0.0101618 0.0101618 0.000106795 168.275 26191.1 36650.4 
8 0.4682 0.4682 0 0.0023845 0.0023845 -8.60404e-06 234.685 60739.5 83723.9 
48 10.2512 10.2512 0 0.0382595 0.0382595 -4.68121e-05 443.281 40468.4 56578.4 
88 10.4234 10.4234 0 0.0380299 0.0380299 -5.22539e-05 435.08 28690.8 40936.5 
128 10.0822 10.0822 0 0.036451 0.036451 -0.000120922 415.943 24312.3 34449.7 
168 9.6188 9.6188 0 0.0350388 0.0350388 -0.000135869 399.293 24585 34446 
208 9.3894 9.3894 0 0.0340433 0.0340433 4.43656e-05 387.192 21439.1 30265.1 
248 8.5998 8.5998 0 0.0315371 0.0315371 -0.000139671 355.45 20685.3 29118.8 
288 7.3778 7.3778 0 0.027923 0.027923 0.00014922 309.763 22261.5 31002.7 
328 0.0826 0.0826 0 0.000139662 0.000139662 5.78469e-06 31.274 2797.31 4009.22 
368 0.1792 0.1792 0 -4.69408e-05 -4.69408e-05 -4.59187e-06 6.74283 1140.86 1415.2 
408 0.1798 0.1798 0 -7.0964e-05 -7.0964e-05 5.68232e-06 7.09924 1185.81 1498.88 
448 0.1752 0.1752 0 -0.000118355 -0.000118355 7.17899e-06 7.23253 1101.13 1265.39 
488 0.1756 0.1756 0 -0.000138579 -0.000138579 -8.03861e-06 7.37315 1081.91 1360.21 
528 0.1638 0.1638 0 -0.000119647 -0.000119647 9.83559e-06 6.74967 1047.56 1307.87 
568 0.1806 0.1806 0 -0.000181172 -0.000181172 -5.92271e-06 7.52247 1041.28 1369.68 
608 0.1914 0.1914 0 -0.000254018 -0.000254018 -8.43586e-06 8.15602 1038.45 1353.38 
648 0.017 0.017 0 -6.89019e-05 -6.89019e-05 -1.21857e-06 7.18046 465.742 719.414 
688 0.227 0.227 0 -0.000845692 -0.000845692 1.14858e-05 9.90336 742.546 1068.38 
728 0.2216 0.2216 0 -0.000838302 -0.000838302 4.23335e-06 9.54467 849.762 1144.01 
768 0.1956 0.1956 0 -0.000704891 -0.000704891 -2.81677e-06 8.04071 538.335 797.893 
808 0.1522 0.1522 0 -0.000548087 -0.000548087 -5.16021e-06 6.44417 413.924 630.061 
848 0.1044 0.1044 0 -0.000317896 -0.000317896 -7.7361e-07 4.11704 372.594 545.528 
888 0.0686 0.0686 0 -0.000178115 -0.000178115 2.05505e-06 2.54359 238.732 304.637 
928 0.0554 0.0554 0 -0.000108829 -0.000108829 9.34993e-06 1.91447 268.496 356.425 
968 0.1772 0.1772 0 0.00053402 0.00053402 -9.13023e-08 77.2426 9685.4 13926.8 
1008 3.8398 3.8398 0 0.0093108 0.0093108 1.40738e-05 162.168 12591.4 17872.8 
1048 4.053 4.053 0 0.00946543 0.00946543 -5.36152e-05 170.428 13153.3 18482.5 
1088 4.236 4.236 0 0.0100079 0.0100079 -3.86925e-05 179.467 14034.2 19744.7 
1128 4.214 4.214 0 0.0102469 0.0102469 1.66685e-05 181.234 16069.1 22427.2 
1168 4.2944 4.2944 0 0.0104741 0.0104741 -3.7051e-05 185.772 18065.5 25363.5 
1208 4.2064 4.2064 0 0.0105972 0.0105972 1.8909e-05 184.366 20689.5 29193.2 
1248 3.6548 3.6548 0 0.0102268 0.0102268 -8.11698e-05 169.343 27703.5 38878.9 
9 0.5296 0.5296 0 0.0027014 0.0027014 -3.14718e-05 269.91 63236.8 88184.6 
49 10.4206 10.4206 0 0.0384226 0.0384226 -0.000107007 444.837 38686.1 54482.9 
89 10.3692 10.3692 0 0.0379125 0.0379125 6.50936e-05 434.806 30066.1 41838 
129 10.068 10.068 0 0.0369028 0.0369028 7.42745e-05 420.273 28201.9 38835.8 
169 9.7968 9.7968 0 0.0355363 0.0355363 -5.12388e-05 404.446 22559.8 32032.6 
209 9.316 9.316 0 0.0337221 0.0337221 7.39473e-05 381.799 20706.7 29768.9 
249 8.4922 8.4922 0 0.0312483 0.0312483 0.000108927 351.759 21697.6 30294.5 
289 7.4788 7.4788 0 0.0278254 0.0278254 -7.91525e-05 309.435 20477.9 28430.1 
329 0.072 0.072 0 0.000103606 0.000103606 -1.71964e-06 29.0653 3043.34 4491.12 
369 0.1846 0.1846 0 -6.67148e-05 -6.67148e-05 1.9458e-05 6.89663 1060.74 1337.51 
409 0.1838 0.1838 0 -0.00010203 -0.00010203 -1.73292e-05 7.47023 1212.36 1458.54 
449 0.17 0.17 0 -0.000127783 -0.000127783 1.76718e-05 7.04005 1076.94 1340.17 
489 0.1674 0.1674 0 -0.00012294 -0.00012294 -7.92939e-06 6.7988 1081.85 1351.53 
529 0.1746 0.1746 0 -0.000158602 -0.000158602 7.22816e-06 7.28905 1067.48 1252.48 
569 0.1794 0.1794 0 -0.000169967 -0.000169967 -1.79699e-06 7.56635 1137.55 1388.5 
609 0.1974 0.1974 0 -0.000237881 -0.000237881 -7.3299e-06 8.12001 1079.56 1379.05 
649 0.0148 0.0148 0 -5.31916e-05 -5.31916e-05 -1.27895e-06 5.9431 611.157 741.794 
689 0.241 0.241 0 -0.000880103 -0.000880103 -6.08863e-06 10.3058 844.543 1223.46 
729 0.226 0.226 0 -0.000832244 -0.000832244 1.17735e-05 9.44608 673.393 954.243 
769 0.1858 0.1858 0 -0.000678577 -0.000678577 1.53165e-05 7.82129 640.434 847.026 
809 0.1396 0.1396 0 -0.000492796 -0.000492796 4.58822e-06 5.86784 506.499 712.491 
849 0.0908 0.0908 0 -0.000287698 -0.000287698 -4.2312e-06 3.66832 357.783 446.246 
889 0.0698 0.0698 0 -0.000177016 -0.000177016 -2.18447e-06 2.61213 312.455 407.42 
929 0.0584 0.0584 0 -0.000115707 -0.000115707 3.65311e-08 1.97786 295.482 404.983 
969 0.2052 0.2052 0 0.000659908 0.000659908 -6.69667e-06 91.9311 12792.1 17374.1 
1009 3.7848 3.7848 0 0.00905919 0.00905919 2.93446e-05 158.917 12013.7 16863 
1049 4.1568 4.1568 0 0.00983803 0.00983803 5.49563e-05 174.663 12761.3 18337.8 
1089 4.3004 4.3004 0 0.0102049 0.0102049 -3.31182e-05 181.798 14564.4 20579.2 
1129 4.27 4.27 0 0.0100945 0.0100945 2.26155e-05 181.32 15348.4 21675.2 
1169 4.3292 4.3292 0 0.0104386 0.0104386 -8.04017e-05 186.014 18061.4 25468.1 
1209 4.215 4.215 0 0.0108387 0.0108387 -4.15322e-05 187.131 22380.1 31423.5 
1249 3.5718 3.5718 0 0.0098809 0.0098809 -2.73706e-05 164.705 25361.5 36381.9 
10 0.5892 0.5892 0 0.00293394 0.00293394 2.98465e-05 297.86 72333.6 101135 
50 10.3972 10.3972 0 0.0381573 0.0381573 8.00275e-06 441.013 35671.4 50611.2 
90 10.2944 10.2944 0 0.0378163 0.0378163 8.99985e-05 433.31 30678.7 43547.5 
130 10.0684 10.0684 0 0.0365448 0.0365448 -1.56539e-05 417.64 24534.9 34939.1 
170 9.6956 9.6956 0 0.0351338 0.0351338 5.35482e-05 400.285 23189.8 32413.5 
210 9.0828 9.0828 0 0.0333438 0.0333438 -2.78209e-05 378.012 23344.3 32106.2 
250 8.6876 8.6876 0 0.0319047 0.0319047 1.58231e-05 359.322 20873.8 28942.4 
290 7.3524 7.3524 0 0.0277023 0.0277023 -9.93907e-06 307.24 20933.6 29134.4 
330 0.055 0.055 0 7.13322e-05 7.13322e-05 -3.19999e-06 19.0898 2365.71 3921.6 
370 0.1878 0.1878 0 -7.41425e-05 -7.41425e-05 2.95451e-06 7.37511 1165.48 1495.11 
410 0.1778 0.1778 0 -9.05798e-05 -9.05798e-05 -1.76643e-06 7.2245 1072.42 1355.21 
450 0.1728 0.1728 0 -0.000117944 -0.000117944 -2.00339e-05 7.08465 1024.99 1248.63 
490 0.165 0.165 0 -0.000115776 -0.000115776 -1.03187e-05 6.80456 1131.72 1359.68 
530 0.1696 0.1696 0 -0.000136051 -0.000136051 1.62597e-05 7.03304 1109.73 1394.81 
570 0.1724 0.1724 0 -0.000184488 -0.000184488 2.6689e-06 7.24977 912.501 1143.99 
610 0.1974 0.1974 0 -0.000240989 -0.000240989 -1.47565e-05 8.38702 1110.58 1421.6 
650 0.0186 0.0186 0 -6.78192e-05 -6.78192e-05 9.27669e-06 7.99665 970.176 1307.96 
690 0.2342 0.2342 0 -0.000894645 -0.000894645 7.12411e-06 10.2825 844.201 1253.31 
730 0.2224 0.2224 0 -0.000818479 -0.000818479 -5.16345e-06 9.40122 705.413 975.103 
770 0.1894 0.1894 0 -0.000668376 -0.000668376 2.12113e-05 7.67639 608.339 911.303 
810 0.1424 0.1424 0 -0.000487424 -0.000487424 -1.25853e-06 5.89654 416.447 687.748 
850 0.0908 0.0908 0 -0.000278887 -0.000278887 -6.85567e-06 3.60769 324.292 515.146 
890 0.0646 0.0646 0 -0.000160006 -0.000160006 -1.88066e-06 2.33136 310.246 383.319 
930 0.0642 0.0642 0 -0.000138946 -0.000138946 1.82007e-06 2.21721 238.282 359.007 
970 0.5502 0.5502 0 0.00183799 0.00183799 -2.62149e-05 97.7405 13862.2 17604.6 
1010 3.866 3.866 0 0.00928491 0.00928491 -9.72699e-05 162.248 12149.9 17253.5 
1050 4.1012 4.1012 0 0.00970519 0.00970519 1.81937e-05 173.249 13720 19374.4 
1090 4.2414 4.2414 0 0.00991666 0.00991666 -8.4376e-05 178.595 14065.1 19815.8 
1130 4.2704 4.2704 0 0.0101825 0.0101825 9.12796e-06 181.038 15126.4 21448.6 
1170 4.3238 4.3238 0 0.0105712 0.0105712 1.96872e-05 186.888 18086 25786.8 
1210 4.1606 4.1606 0 0.0105102 0.0105102 5.35894e-05 182.955 20480.8 29039.7 
1250 3.6076 3.6076 0 0.00997123 0.00997123 -5.63309e-05 165.434 26152.1 36935.9 
11 0.649 0.649 0 0.00320119 0.00320119 -1.71795e-05 333.641 80158.6 112466 
51 10.319 10.319 0 0.0385468 0.0385468 -5.66396e-06 444.487 40367 56900.9 
91 10.4536 10.4536 0 0.0381201 0.0381201 -8.55468e-06 435.533 29056.7 41247.9 
131 10.053 10.053 0 0.0364682 0.0364682 8.0667e-05 416.076 24704 34819.5 
171 9.7084 9.7084 0 0.0352578 0.0352578 -1.88976e-05 400.899 24122.4 34237.9 
211 9.3362 9.3362 0 0.0337926 0.0337926 2.84278e-05 382.836 21326.6 29938.5 
251 8.46 8.46 0 0.0309974 0.0309974 7.73517e-06 349.318 20376.2 28492.5 
291 7.2038 7.2038 0 0.0271552 0.0271552 -0.000107113 299.9 21989.9 30824.3 
331 0.047 0.047 0 3.32211e-05 3.32211e-05 -7.83265e-06 17.1667 1829.87 3086.4 
371 0.173 0.173 0 -4.55377e-05 -4.55377e-05 -3.00295e-06 6.66929 996.966 1271.07 
411 0.1676 0.1676 0 -6.97844e-05 -6.97844e-05 -2.6108e-06 6.65343 1186.17 1499.41 
451 0.171 0.171 0 -9.26919e-05 -9.26919e-05 8.7285e-06 7.16098 1211.29 1472.65 
491 0.1726 0.1726 0 -0.000126161 -0.000126161 -5.94115e-06 7.1206 1041.15 1346.31 
531 0.1814 0.1814 0 -0.000153459 -0.000153459 -6.23828e-06 7.66705 1109.55 1413.17 
571 0.1824 0.1824 0 -0.000190236 -0.000190236 6.67433e-06 7.6946 1042.5 1330.86 
611 0.1974 0.1974 0 -0.000249848 -0.000249848 1.76504e-05 8.48102 1145.11 1419.05 
651 0.0174 0.0174 0 -5.59599e-05 -5.59599e-05 1.47788e-06 6.83419 668.846 1187.63 
691 0.2256 0.2256 0 -0.000831569 -0.000831569 5.04613e-06 9.72241 722.812 1121.02 
731 0.2178 0.2178 0 -0.000812016 -0.000812016 -1.50552e-05 9.34128 797.608 1060.49 
771 0.1888 0.1888 0 -0.000702913 -0.000702913 1.58604e-05 8.05179 705.568 933.022 
811 0.138 0.138 0 -0.000472109 -0.000472109 1.09948e-05 5.64576 501.247 682.629 
851 0.0966 0.0966 0 -0.00028906 -0.00028906 -1.02765e-05 3.89558 400.707 550.846 
891 0.0724 0.0724 0 -0.000186473 -0.000186473 6.53756e-06 2.78405 395.528 537.606 
931 0.0538 0.0538 0 -0.000104014 -0.000104014 1.62989e-06 1.80161 247.737 364.602 
971 0.5512 0.5512 0 0.00181279 0.00181279 1.92494e-05 98.3147 14007.6 17874.6 
1011 3.8758 3.8758 0 0.00931861 0.00931861 -1.28469e-05 163.406 12175 16758.4 
1051 4.1428 4.1428 0 0.00967669 0.00967669 6.99891e-05 173.707 12650.3 17714.4 
1091 4.2306 4.2306 0 0.00996574 0.00996574 -4.58645e-05 178.918 13435.4 19257.7 
1131 4.309 4.309 0 0.0103913 0.0103913 -5.42252e-05 184.792 16493.5 23046.8 
1171 4.2222 4.2222 0 0.0103169 0.0103169 6.56734e-05 182.654 17694.7 25078.1 
1211 4.141 4.141 0 0.0104783 0.0104783 -2.14389e-05 183.269 20949.1 29649.5 
1251 3.5394 3.5394 0 0.0100243 0.0100243 -9.22933e-06 165.174 27064.5 37973.4 
12 0.6768 0.6768 0 0.00326633 0.00326633 2.79938e-05 350.813 81598.2 113785 
52 10.457 10.457 0 0.0384341 0.0384341 7.97113e-05 443.381 35845.9 50524.3 
92 10.4072 10.4072 0 0.0377661 0.0377661 0.000148876 433.8 27818.4 40006.9 
132 9.999 9.999 0 0.0366577 0.0366577 -5.12014e-05 417.662 27161.7 38066.4 
172 9.718 9.718 0 0.0352529 0.0352529 -5.50154e-05 400.423 22115.7 32161.5 
212 9.2292 9.2292 0 0.0336074 0.0336074 0.00014089 380.134 22333 30796.6 
252 8.4404 8.4404 0 0.0311691 0.0311691 -4.52283e-05 350.428 22577.2 31194.1 
292 7.3096 7.3096 0 0.0274139 0.0274139 -3.81706e-05 303.931 19930.5 28201.3 
332 0.035 0.035 0 1.55068e-05 1.55068e-05 -2.68315e-06 12.4543 1415.33 1908.11 
372 0.1678 0.1678 0 -6.48319e-05 -6.48319e-05 4.92561e-06 6.53515 952.909 1241.04 
412 0.1694 0.1694 0 -8.6532e-05 -8.6532e-05 7.06937e-06 6.76343 1081.68 1326.07 
452 0.1666 0.1666 0 -9.17989e-05 -9.17989e-05 1.60046e-05 6.68215 1070.84 1291.81 
492 0.1658 0.1658 0 -0.000118541 -0.000118541 -7.71279e-06 6.63927 1115.21 1472.58 
532 0.171 0.171 0 -0.000116072 -0.000116072 4.55017e-06 7.09961 1162.1 1347.77 
572 0.1808 0.1808 0 -0.000181781 -0.000181781 1.15933e-05 7.63843 1120.48 1457.06 
612 0.1966 0.1966 0 -0.000252639 -0.000252639 -3.16836e-06 8.4453 1044.19 1368.89 
652 0.0468 0.0468 0 -0.000174103 -0.000174103 1.13426e-05 8.1802 379.494 743.391 
692 0.2316 0.2316 0 -0.000838522 -0.000838522 -1.36997e-05 9.86393 695.711 990.48 
732 0.2342 0.2342 0 -0.000844877 -0.000844877 3.33467e-06 9.67969 738.394 1039.44 
772 0.1716 0.1716 0 -0.000610641 -0.000610641 6.89664e-06 7.02216 493.367 716.621 
812 0.142 0.142 0 -0.000482566 -0.000482566 1.51564e-05 5.80391 466.577 718.567 