ITEM: TIMESTEP
25000
ITEM: NUMBER OF SURFS
1272
ITEM: BOX BOUNDS oo rr pp
0 0.3
0 0.3
-0.5 0.5
ITEM: SURFS id f_4[1] f_4[2] f_4[3] f_4[4] f_4[5] f_4[6] f_4[7] f_4[8] f_4[9] 
1 0.0614 0.0614 0 0.000164579 0.000164579 6.51773e-06 24.9277 4522.68 6770.02 
41 9.3506 9.3506 0 0.0395424 0.0395424 -2.47917e-05 398.471 32323.5 45435.2 
81 10.439 10.439 0 0.0431779 0.0431779 -0.000177764 433.991 26394.8 37882.6 
121 10.5982 10.5982 0 0.0437435 0.0437435 -5.2985e-05 439.198 26196.2 36432.3 
161 10.5376 10.5376 0 0.0436602 0.0436602 0.000127669 438.303 25635 36336.1 
201 10.5298 10.5298 0 0.0432769 0.0432769 -0.000108115 434.021 23810.9 33473.6 
241 10.1116 10.1116 0 0.0417986 0.0417986 -8.04064e-05 418.793 25886.4 35967.3 
281 9.2388 9.2388 0 0.0388232 0.0388232 -6.86292e-05 388.282 27957.3 39273.6 
321 0.3726 0.3726 0 0.00168602 0.00168602 2.58386e-05 165.659 27401.5 36253.1 
361 0.4832 0.4832 0 0.000572331 0.000572331 4.1714e-05 20.8017 3735.42 4892.67 
401 0.5672 0.5672 0 0.000459266 0.000459266 -2.63755e-05 25.2379 4333.23 5552.61 
441 0.5934 0.5934 0 0.000335886 0.000335886 3.54097e-05 26.3576 3894.82 5135.3 
481 0.641 0.641 0 0.000389027 0.000389027 -2.63573e-05 28.0924 4117.54 5471.5 
521 0.6506 0.6506 0 0.000302155 0.000302155 -1.3167e-07 28.8881 4281.43 5561.67 
561 0.6616 0.6616 0 0.000283858 0.000283858 -4.32433e-05 28.9041 3800.79 5123.06 
601 0.6374 0.6374 0 0.00033526 0.00033526 -3.23131e-05 28.036 3401 4605.13 
641 0.0216 0.0216 0 -2.09815e-05 -2.09815e-05 6.69107e-07 8.82913 1672.9 2242.3 
681 0.1234 0.1234 0 -0.000495617 -0.000495617 1.31483e-05 5.01549 396.366 593.222 
721 0.1868 0.1868 0 -0.00080854 -0.00080854 -2.5058e-06 8.16428 687.14 952.33 
761 0.2036 0.2036 0 -0.000876606 -0.000876606 -9.80207e-06 8.80849 703.179 983.991 
801 0.2112 0.2112 0 -0.000910248 -0.000910248 1.54889e-05 9.12241 796.93 1017.56 
841 0.1888 0.1888 0 -0.000808789 -0.000808789 2.94021e-07 8.08479 722.723 871.446 
881 0.152 0.152 0 -0.000634771 -0.000634771 -1.18807e-05 6.33946 517.465 723.581 
921 0.09 0.09 0 -0.00035336 -0.00035336 7.83075e-06 3.54211 334.762 456.873 
961 0.0182 0.0182 0 -2.0084e-05 -2.0084e-05 -9.07512e-06 6.6631 1036.78 1402.86 
1001 1.1176 1.1176 0 0.00124297 0.00124297 -1.34763e-05 48.814 5863.22 8167.54 
1041 1.1984 1.1984 0 0.00119918 0.00119918 4.18853e-05 51.7236 6242.73 8443.14 
1081 1.188 1.188 0 0.001192 0.001192 -2.97089e-05 51.9905 6004.23 8396.2 
1121 1.1882 1.1882 0 0.00118702 0.00118702 2.57314e-05 52.0031 6205.67 8642.46 
1161 1.1126 1.1126 0 0.0012566 0.0012566 -4.32351e-05 49.4742 6514.99 9065.41 
1201 1.0114 1.0114 0 0.00125423 0.00125423 1.71481e-05 45.4523 6801.46 9407.17 
1241 0.8154 0.8154 0 0.00133131 0.00133131 4.26443e-05 36.6778 6440.02 8717.87 
2 0.0814 0.0814 0 0.000246634 0.000246634 8.18537e-06 32.4658 6323.05 9476.53 
42 9.4376 9.4376 0 0.0398876 0.0398876 3.51696e-05 401.804 31552 44797.7 
82 10.3294 10.3294 0 0.0427365 0.0427365 0.000167863 429.489 26424.7 37682.9 
122 10.633 10.633 0 0.0439622 0.0439622 -0.000178384 441.535 26069.5 36877.3 
162 10.6452 10.6452 0 0.0438616 0.0438616 -5.73754e-05 440.07 23649.5 33983.9 
202 10.4654 10.4654 0 0.0428709 0.0428709 5.27192e-05 429.958 23799.2 33786.7 
242 10.1612 10.1612 0 0.0419559 0.0419559 -0.000188817 420.332 25388 35539.5 
282 9.2856 9.2856 0 0.038966 0.038966 1.57102e-05 389.612 27946.8 38760.9 
322 0.299 0.299 0 0.00132774 0.00132774 -1.85144e-06 131.834 19928.4 26969.7 
362 0.4722 0.4722 0 0.000576493 0.000576493 -2.01254e-05 19.9014 3445.6 4553.89 
402 0.571 0.571 0 0.000485163 0.000485163 1.2573e-05 25.25 3946.8 5331.78 
442 0.623 0.623 0 0.000404774 0.000404774 7.54061e-06 27.4911 4132.11 5542.84 
482 0.6652 0.6652 0 0.000354059 0.000354059 2.28273e-05 29.2286 4228.25 5598.03 
522 0.6706 0.6706 0 0.000299409 0.000299409 -2.61306e-05 29.4458 3903.89 5308.68 
562 0.6714 0.6714 0 0.000247616 0.000247616 7.36424e-06 29.8992 3734.02 5088.94 
602 0.6464 0.6464 0 0.000353618 0.000353618 8.2576e-06 28.681 3719.07 4852.33 
642 0.016 0.016 0 -1.79291e-05 -1.79291e-05 9.73672e-07 6.08734 1040.68 1126.28 
682 0.1298 0.1298 0 -0.000530733 -0.000530733 -8.45383e-06 5.3653 329.185 539.044 
722 0.1886 0.1886 0 -0.000775228 -0.000775228 -6.17779e-06 7.80633 630.551 930.602 
762 0.207 0.207 0 -0.000894195 -0.000894195 1.35321e-05 8.98668 657.048 1031.33 
802 0.2212 0.2212 0 -0.000984629 -0.000984629 -3.09136e-06 9.87408 777.335 1105.84 
842 0.192 0.192 0 -0.000817618 -0.000817618 7.46139e-06 8.16947 574.658 898.036 
882 0.1406 0.1406 0 -0.000594458 -0.000594458 -1.90422e-05 5.9348 415.148 645.767 
922 0.0926 0.0926 0 -0.000361622 -0.000361622 -2.41589e-06 3.63654 346.578 501.187 
962 0.0272 0.0272 0 -2.19157e-05 -2.19157e-05 -1.74286e-06 10.5785 1815.16 2513.74 
1002 1.1114 1.1114 0 0.00115177 0.00115177 -3.50771e-05 48.5191 5292.27 7369.49 
1042 1.2034 1.2034 0 0.00119431 0.00119431 1.0056e-05 52.6166 5934.24 8357.86 
1082 1.223 1.223 0 0.00121489 0.00121489 2.46956e-05 54.3377 6256.76 8814.96 
1122 1.1566 1.1566 0 0.00126774 0.00126774 -1.36199e-05 51.9239 6528.84 8938.22 
1162 1.099 1.099 0 0.00122195 0.00122195 -1.03007e-05 48.5612 6525.8 9106.35 
1202 1.0154 1.0154 0 0.00125867 0.00125867 3.24844e-05 45.2949 6902.58 9322.59 
1242 0.8144 0.8144 0 0.00132422 0.00132422 -1.40178e-05 35.9799 6268.23 8370.65 
3 0.0972 0.0972 0 0.000318802 0.000318802 1.41945e-06 40.3557 7303.27 10631.1 
43 9.4964 9.4964 0 0.0398109 0.0398109 9.98692e-06 401.015 30093.1 42637.5 
83 10.432 10.432 0 0.0430649 0.0430649 0.000138816 432.77 26690.8 37740.7 
123 10.6196 10.6196 0 0.0437043 0.0437043 -9.28656e-05 438.799 27564 38175.7 
163 10.6424 10.6424 0 0.0436437 0.0436437 -0.000126186 437.988 24650.5 34765.8 
203 10.4928 10.4928 0 0.0430673 0.0430673 4.37323e-05 431.905 23244.1 32945.5 
243 10.063 10.063 0 0.0416741 0.0416741 0.000161136 417.363 26577.8 36901.4 
283 9.1722 9.1722 0 0.0384556 0.0384556 -0.000168746 384.592 27203.1 38143.6 
323 0.2592 0.2592 0 0.00116005 0.00116005 1.03192e-05 114.936 19090.7 26590.4 
363 0.4822 0.4822 0 0.000533046 0.000533046 -2.1687e-05 20.7163 3290.41 4444.46 
403 0.5668 0.5668 0 0.000398437 0.000398437 -1.60273e-05 25.1425 3919.1 5159.52 
443 0.6162 0.6162 0 0.000357489 0.000357489 -1.78455e-06 27.1122 4048.65 5227.39 
483 0.6638 0.6638 0 0.00033274 0.00033274 1.40023e-05 28.9433 4002.64 5383.89 
523 0.683 0.683 0 0.000325626 0.000325626 3.95047e-05 30.3589 4005.6 5471.32 
563 0.6644 0.6644 0 0.000292796 0.000292796 -2.3768e-05 29.5212 3979.56 5339.34 
603 0.627 0.627 0 0.000368548 0.000368548 5.06403e-05 27.3143 3555.45 4879.56 
643 0.0124 0.0124 0 -1.5439e-05 -1.5439e-05 4.44054e-06 4.3467 359.985 487.286 
683 0.1314 0.1314 0 -0.000511632 -0.000511632 -2.10242e-06 5.18034 527.69 777.715 
723 0.19 0.19 0 -0.000810216 -0.000810216 -1.58557e-06 8.17597 516.356 886.639 
763 0.2164 0.2164 0 -0.000923887 -0.000923887 -7.90438e-06 9.27752 823.897 1134.89 
803 0.2126 0.2126 0 -0.000917132 -0.000917132 -1.42817e-05 9.19158 709.093 987.816 
843 0.1948 0.1948 0 -0.000826048 -0.000826048 -1.17881e-05 8.26663 657.022 930.84 
883 0.1414 0.1414 0 -0.000597824 -0.000597824 1.00615e-05 5.96134 379.795 702.427 
923 0.0934 0.0934 0 -0.00035988 -0.00035988 1.07376e-05 3.60527 293.051 492.797 
963 0.0256 0.0256 0 -1.84311e-06 -1.84311e-06 1.81425e-06 10.2036 1589.88 2006.01 
1003 1.0958 1.0958 0 0.00111473 0.00111473 5.32508e-05 48.0525 5626.43 7583.11 
1043 1.2046 1.2046 0 0.00124226 0.00124226 -3.54139e-05 52.7693 6156.32 8586.84 
1083 1.2114 1.2114 0 0.00126913 0.00126913 1.14926e-05 53.1144 6129.24 8624.61 
1123 1.2024 1.2024 0 0.00124475 0.00124475 7.83961e-05 52.8986 6672.02 9078.25 
1163 1.1038 1.1038 0 0.0012358 0.0012358 6.03557e-05 48.9892 6715.71 9082.14 
1203 0.9788 0.9788 0 0.0012616 0.0012616 3.11444e-05 43.6718 6732.88 9191.52 
1243 0.8182 0.8182 0 0.00138603 0.00138603 -1.49958e-05 36.782 6396.11 8516.4 
4 0.1228 0.1228 0 0.000444264 0.000444264 1.90052e-05 51.97 8991.31 13322.2 
44 9.4988 9.4988 0 0.0398925 0.0398925 -6.17027e-05 401.747 30092 43006.5 
84 10.3738 10.3738 0 0.0427972 0.0427972 -8.52631e-05 430.048 27178.7 38053.1 
124 10.6656 10.6656 0 0.0439599 0.0439599 0.000182756 441.6 26791.9 37045.3 
164 10.7902 10.7902 0 0.0443225 0.0443225 -4.27268e-05 444.672 25139.3 35910.3 
204 10.5124 10.5124 0 0.0431292 0.0431292 -2.47048e-05 432.444 24690.5 34680.8 
244 10.1454 10.1454 0 0.0421303 0.0421303 -0.000168663 422.038 26546.7 37397.2 
284 9.2052 9.2052 0 0.0386491 0.0386491 2.20711e-05 386.507 27412.4 38542.6 
324 0.2268 0.2268 0 0.000962124 0.000962124 3.046e-05 99.2786 17418.3 23611.8 
364 0.4894 0.4894 0 0.000531042 0.000531042 -1.76674e-05 21.0406 3669.83 4692.72 
404 0.559 0.559 0 0.000425213 0.000425213 1.7816e-05 24.6288 3790.16 5047.55 
444 0.6094 0.6094 0 0.000375956 0.000375956 3.14505e-05 27.1146 4103.73 5331.77 
484 0.6716 0.6716 0 0.000346172 0.000346172 -5.10894e-05 29.4728 4087.88 5546.72 
524 0.6838 0.6838 0 0.000309634 0.000309634 4.39139e-05 30.1385 3803.25 5194.57 
564 0.6656 0.6656 0 0.000307044 0.000307044 -2.42803e-06 29.6443 3919.42 5202.31 
604 0.653 0.653 0 0.000358247 0.000358247 4.76249e-05 28.6349 3700.42 4871.4 
644 0.0104 0.0104 0 -2.4188e-05 -2.4188e-05 -1.64114e-06 4.07418 378.02 564.403 
684 0.1362 0.1362 0 -0.000542589 -0.000542589 -5.29503e-06 5.47356 491.04 753.923 
724 0.1894 0.1894 0 -0.000800998 -0.000800998 1.95433e-05 8.10504 798.565 1065.04 
764 0.2076 0.2076 0 -0.000888299 -0.000888299 1.4401e-06 8.92822 706.75 981.955 
804 0.2118 0.2118 0 -0.000922806 -0.000922806 2.13587e-05 9.242 796.252 1172.82 
844 0.2002 0.2002 0 -0.000872286 -0.000872286 -7.69863e-06 8.71838 625.987 897.959 
884 0.144 0.144 0 -0.000596207 -0.000596207 -1.30037e-06 5.96739 441.118 607.887 
924 0.0918 0.0918 0 -0.000363903 -0.000363903 1.28756e-05 3.63669 282.972 450.292 
964 0.0346 0.0346 0 -3.30065e-06 -3.30065e-06 6.51803e-07 14.7416 2453.15 3683.92 
1004 1.1284 1.1284 0 0.00119777 0.00119777 -6.49744e-06 49.645 5894 8108.55 
1044 1.2028 1.2028 0 0.00118132 0.00118132 -4.45706e-05 52.7934 5945.36 8334.89 
1084 1.208 1.208 0 0.00116896 0.00116896 -1.23436e-05 53.0302 6376.56 8810.87 
1124 1.2126 1.2126 0 0.00126477 0.00126477 7.34457e-06 53.4121 7050.05 9621.4 
1164 1.1296 1.1296 0 0.00128954 0.00128954 -5.12748e-05 50.7158 6985.76 9546.37 
1204 1.0404 1.0404 0 0.00132572 0.00132572 -3.98473e-05 46.8721 7368.74 10144.3 
1244 0.812 0.812 0 0.00132891 0.00132891 -1.3416e-05 36.1559 6606.74 9018.38 
5 0.1362 0.1362 0 0.000505951 0.000505951 -8.63652e-06 56.365 10455.9 15897.8 
45 9.5928 9.5928 0 0.0401685 0.0401685 -9.77677e-05 404.52 30391.5 43639.5 
85 10.3934 10.3934 0 0.042974 0.042974 -0.000179054 431.819 26820.9 37732.3 
125 10.6264 10.6264 0 0.043995 0.043995 0.00016341 441.897 28642.6 39706.8 
165 10.6964 10.6964 0 0.0438581 0.0438581 0.00010479 440.121 24395.7 34310.9 
205 10.4722 10.4722 0 0.0429305 0.0429305 -2.43874e-05 430.701 24097.9 33854.6 
245 10.0498 10.0498 0 0.0418057 0.0418057 0.000158757 418.792 27279.3 37932.1 
285 9.1126 9.1126 0 0.0381942 0.0381942 -0.000143965 382.013 26900 38036.6 
325 0.2178 0.2178 0 0.000908892 0.000908892 4.9799e-06 95.5335 15665.6 21800.4 
365 0.4968 0.4968 0 0.000510419 0.000510419 -4.22885e-05 21.2745 3463.63 4515.63 
405 0.5614 0.5614 0 0.000465168 0.000465168 6.50337e-06 24.8014 4121.8 5240.95 
445 0.6062 0.6062 0 0.000369096 0.000369096 -2.15651e-06 26.5864 3996.84 5255.94 
485 0.6628 0.6628 0 0.000343706 0.000343706 -7.89352e-06 29.5211 4372.83 5680.12 
525 0.647 0.647 0 0.000308686 0.000308686 2.4788e-06 28.8435 3787.86 5022.73 
565 0.6434 0.6434 0 0.000259054 0.000259054 -2.68636e-06 28.6889 3779.78 5069.52 
605 0.6466 0.6466 0 0.000341451 0.000341451 2.25363e-05 28.3315 3660.54 4985.39 
645 0.0106 0.0106 0 -2.11065e-05 -2.11065e-05 -6.33304e-06 3.57774 414.052 712.336 
685 0.126 0.126 0 -0.000515227 -0.000515227 -8.18893e-06 5.20294 432.516 647.422 
725 0.1766 0.1766 0 -0.000741499 -0.000741499 -7.87016e-06 7.46599 642.618 898.851 
765 0.2166 0.2166 0 -0.000931879 -0.000931879 -2.01786e-05 9.37345 717.47 1096.18 
805 0.2078 0.2078 0 -0.000892611 -0.000892611 -1.18136e-05 8.95328 685.948 1097.95 
845 0.1798 0.1798 0 -0.000777059 -0.000777059 -1.58143e-05 7.75887 719.647 1000.71 
885 0.153 0.153 0 -0.000621037 -0.000621037 -1.00245e-05 6.19769 462.471 662.914 
925 0.0824 0.0824 0 -0.000318998 -0.000318998 -4.37643e-08 3.19736 202.927 339.395 
965 0.0394 0.0394 0 1.94059e-05 1.94059e-05 -1.35551e-06 16.1982 3450.89 4683.11 
1005 1.1212 1.1212 0 0.0012056 0.0012056 1.23429e-06 49.2438 5601.8 7833.95 
1045 1.1954 1.1954 0 0.0011851 0.0011851 -7.09847e-05 52.117 6099.01 8245.1 
1085 1.2194 1.2194 0 0.00121315 0.00121315 1.77434e-05 53.3324 6250.67 8664.35 
1125 1.1856 1.1856 0 0.00117041 0.00117041 1.59979e-06 52.6128 6786.45 9408.79 
1165 1.1036 1.1036 0 0.00123098 0.00123098 1.46355e-06 49.1682 6437.62 8897.89 
1205 0.9858 0.9858 0 0.00129242 0.00129242 -5.97046e-06 44.4325 6892.77 9421.2 
1245 0.767 0.767 0 0.00125031 0.00125031 1.34973e-05 34.2604 5772.16 8011.47 
6 0.1702 0.1702 0 0.00068987 0.00068987 -1.48344e-05 71.9658 12551.7 17818.8 
46 9.6324 9.6324 0 0.0403805 0.0403805 3.61436e-05 406.6 29704.1 42381.4 
86 10.4046 10.4046 0 0.0431083 0.0431083 7.12034e-05 433.301 27415.6 38360.5 
126 10.5588 10.5588 0 0.0436017 0.0436017 -0.00019707 437.734 26846.1 37657.9 
166 10.6388 10.6388 0 0.0436993 0.0436993 2.85143e-05 438.399 23912.6 33692.3 
206 10.5526 10.5526 0 0.0435667 0.0435667 1.57985e-05 436.878 24721.7 34137.5 
246 9.9324 9.9324 0 0.0414331 0.0414331 8.94877e-05 415.027 26729.1 37090.8 
286 9.1354 9.1354 0 0.0381987 0.0381987 -2.20019e-05 381.928 27054.7 38041.6 
326 0.176 0.176 0 0.00069654 0.00069654 1.05503e-05 74.6964 13460.3 18900.3 
366 0.4874 0.4874 0 0.000528206 0.000528206 -2.84511e-05 20.665 3667.91 4773.06 
406 0.5762 0.5762 0 0.000446579 0.000446579 1.51985e-05 25.2959 4022.67 5291.2 
446 0.6162 0.6162 0 0.000344956 0.000344956 -1.81419e-05 27.0981 3831.74 4997.44 
486 0.6412 0.6412 0 0.000356739 0.000356739 -3.80533e-06 28.4603 4012.2 5385.57 
526 0.6808 0.6808 0 0.000267538 0.000267538 1.71546e-05 30.1708 3974.81 5331.15 
566 0.6782 0.6782 0 0.00031448 0.00031448 1.64468e-05 29.8447 3808.12 5012.01 
606 0.6228 0.6228 0 0.000355827 0.000355827 -2.26277e-05 27.2332 3713.33 5014.53 
646 0.0064 0.0064 0 -1.54162e-05 -1.54162e-05 4.36674e-08 2.13966 222.972 346.443 
686 0.1316 0.1316 0 -0.000520978 -0.000520978 -1.09303e-06 5.28793 424.606 673.014 
726 0.1844 0.1844 0 -0.000798554 -0.000798554 -3.97239e-06 8.05009 594.876 907.197 
766 0.228 0.228 0 -0.000995688 -0.000995688 2.93759e-05 10.0167 917.84 1236.37 
806 0.2192 0.2192 0 -0.000929042 -0.000929042 1.55621e-05 9.30799 661.771 942.263 
846 0.185 0.185 0 -0.00078808 -0.00078808 5.74641e-06 7.85781 597.116 910.762 
886 0.1452 0.1452 0 -0.000607789 -0.000607789 -5.9899e-06 6.07196 582.133 826.014 
926 0.0838 0.0838 0 -0.00032211 -0.00032211 -1.98674e-05 3.2282 297.348 448.62 
966 0.044 0.044 0 2.49681e-05 2.49681e-05 -8.70958e-07 18.9212 2619.52 3579.02 
1006 1.1146 1.1146 0 0.00122533 0.00122533 2.4505e-05 49.1116 5819.46 7900.05 
1046 1.1982 1.1982 0 0.00117053 0.00117053 -3.15929e-05 52.334 5753.98 7979.18 
1086 1.208 1.208 0 0.00122765 0.00122765 4.36562e-05 53.2897 6377.98 8862.34 
1126 1.1718 1.1718 0 0.00123785 0.00123785 -1.40875e-05 51.3276 6460.27 9055.78 
1166 1.0998 1.0998 0 0.00125865 0.00125865 5.22655e-05 48.9771 6709.32 9199.32 
1206 0.9718 0.9718 0 0.00120318 0.00120318 3.2781e-05 43.7729 6496.88 8817.98 
1246 0.7818 0.7818 0 0.00124433 0.00124433 6.07257e-06 34.7763 6039.36 8161.98 
7 0.207 0.207 0 0.000858987 0.000858987 -2.50509e-05 87.6681 15799.6 22869.6 
47 9.7352 9.7352 0 0.0406139 0.0406139 -0.000129909 408.945 29855.6 42677.1 
87 10.4104 10.4104 0 0.0429786 0.0429786 -5.11564e-05 432.076 26360.8 37258.9 
127 10.5984 10.5984 0 0.0437244 0.0437244 5.85572e-05 439.043 26291.7 37155.7 
167 10.646 10.646 0 0.0436916 0.0436916 -0.000110101 438.506 23767.2 33924.4 
207 10.4576 10.4576 0 0.0432797 0.0432797 -3.88341e-05 434.012 25075.5 34809.1 
247 10.1106 10.1106 0 0.0418369 0.0418369 3.14602e-06 419.117 26989.8 37643.4 
287 9.0838 9.0838 0 0.0379756 0.0379756 -0.000145808 379.727 26378.4 37469.5 
327 0.1552 0.1552 0 0.000576732 0.000576732 1.32139e-06 65.5559 11615 16599.6 
367 0.5092 0.5092 0 0.000543068 0.000543068 2.29669e-05 21.7702 3760.4 4907.43 
407 0.5964 0.5964 0 0.000489953 0.000489953 -1.17348e-05 26.3015 4264.75 5566.69 
447 0.6244 0.6244 0 0.000405136 0.000405136 -5.30343e-06 27.445 3905.39 5435.71 
487 0.644 0.644 0 0.000315231 0.000315231 -6.1157e-06 28.6279 4063.6 5450.38 
527 0.6708 0.6708 0 0.000285811 0.000285811 -1.56047e-05 29.5128 3772.8 5126.67 
567 0.6736 0.6736 0 0.000295966 0.000295966 -6.20851e-05 29.3707 3732.89 4993.98 
607 0.6302 0.6302 0 0.000362377 0.000362377 1.7666e-05 27.802 3759.58 4792.69 
647 0.0078 0.0078 0 -2.36548e-05 -2.36548e-05 -3.42709e-06 2.82258 386.833 511.358 
687 0.1296 0.1296 0 -0.000530683 -0.000530683 -1.50455e-05 5.36134 407.898 551.052 
727 0.1868 0.1868 0 -0.000787067 -0.000787067 -4.11946e-06 7.93639 607.812 786.88 
767 0.2054 0.2054 0 -0.000883985 -0.000883985 -1.01865e-05 8.86942 818.113 1150.77 
807 0.2138 0.2138 0 -0.000917194 -0.000917194 1.74785e-05 9.18325 730.931 914.056 
847 0.1856 0.1856 0 -0.000784834 -0.000784834 5.93918e-06 7.86033 625.906 876.357 
887 0.1418 0.1418 0 -0.000576964 -0.000576964 -6.19277e-06 5.782 494.225 690.478 
927 0.0814 0.0814 0 -0.000309307 -0.000309307 -5.74034e-06 3.10045 316.094 527.323 
967 0.054 0.054 0 6.80354e-05 6.80354e-05 -1.20472e-06 23.2724 4201.57 5510.57 
1007 1.1216 1.1216 0 0.00123905 0.00123905 4.42178e-05 48.3071 5656.42 7945.08 
1047 1.23 1.23 0 0.00122646 0.00122646 2.62748e-05 53.3458 5926.98 8255.76 
1087 1.2042 1.2042 0 0.00125493 0.00125493 2.33172e-05 52.5448 6063.52 8290 
1127 1.1984 1.1984 0 0.00120851 0.00120851 6.18587e-05 53.4599 6438.26 8949.98 
1167 1.0804 1.0804 0 0.00127497 0.00127497 1.19954e-05 48.3886 6526.34 8952.79 
1207 0.981 0.981 0 0.00126726 0.00126726 -9.61522e-06 43.8251 6741.09 9416.93 
1247 0.79 0.79 0 0.00132771 0.00132771 1.48331e-05 34.6257 6076.1 8188.55 
8 0.2418 0.2418 0 0.00104119 0.00104119 -6.9153e-06 106.557 19781.5 27391.8 
48 9.6604 9.6604 0 0.040382 0.040382 -2.7188e-06 406.524 30199.3 42687.8 
88 10.4082 10.4082 0 0.0431943 0.0431943 2.88474e-05 434.105 28058.5 38870.1 
128 10.657 10.657 0 0.0439445 0.0439445 -4.08432e-05 441.269 25441.6 35957.2 
168 10.6178 10.6178 0 0.043643 0.043643 -3.93824e-05 438.03 24964.5 34508.8 
208 10.4882 10.4882 0 0.0432261 0.0432261 0.000156797 433.35 25563.7 35782.9 
248 10.0624 10.0624 0 0.0414325 0.0414325 -0.000120409 415.141 25394.3 35585.6 
288 9.0412 9.0412 0 0.0379183 0.0379183 1.56104e-05 379.166 26466.3 37307.2 
328 0.1184 0.1184 0 0.000398087 0.000398087 8.39241e-06 48.8902 8009.73 12087.3 
368 0.5026 0.5026 0 0.000521412 0.000521412 -8.0476e-06 21.7141 3916.94 5030.88 
408 0.5728 0.5728 0 0.000435361 0.000435361 -3.82599e-05 25.3362 4083.07 5232.57 
448 0.6222 0.6222 0 0.000348097 0.000348097 -1.59701e-05 27.3105 3874.83 5232.25 
488 0.666 0.666 0 0.000327993 0.000327993 -2.10782e-05 29.5203 3816.92 5174.47 
528 0.668 0.668 0 0.000320781 0.000320781 -4.88113e-05 29.187 4065.95 5458.79 
568 0.6916 0.6916 0 0.000269297 0.000269297 -7.95461e-06 30.2844 3861.69 5370 
608 0.611 0.611 0 0.00033572 0.00033572 -1.28501e-06 26.6629 3657.78 4791.83 
648 0.0068 0.0068 0 -2.22199e-05 -2.22199e-05 -1.90889e-06 2.53684 103.221 284.181 
688 0.1372 0.1372 0 -0.000556337 -0.000556337 8.18989e-06 5.63119 525.544 755.036 
728 0.1872 0.1872 0 -0.000778121 -0.000778121 2.37716e-05 7.85675 630.99 977.278 
768 0.2126 0.2126 0 -0.000890218 -0.000890218 6.99452e-06 8.93433 709.69 1088.04 
808 0.2118 0.2118 0 -0.000897287 -0.000897287 1.14071e-05 8.99975 744.259 1084.25 
848 0.1934 0.1934 0 -0.000811699 -0.000811699 9.82187e-06 8.10748 684.71 949.234 
888 0.1482 0.1482 0 -0.000620337 -0.000620337 -3.85602e-06 6.20765 432.369 684.376 
928 0.0728 0.0728 0 -0.00027269 -0.00027269 -4.53753e-06 2.73365 176.877 288.792 
968 0.0586 0.0586 0 8.88434e-05 8.88434e-05 8.3446e-06 26.7005 4867.11 6263.83 
1008 1.1152 1.1152 0 0.00118569 0.00118569 -6.26713e-05 49.3255 5512.12 7503.9 
1048 1.2208 1.2208 0 0.00120559 0.00120559 2.31152e-05 53.5453 6090.52 8368.62 
1088 1.1926 1.1926 0 0.00114257 0.00114257 -3.8873e-06 52.2279 5986.67 8489.42 
1128 1.1742 1.1742 0 0.00118863 0.00118863 -6.19338e-06 52.1953 6732.48 9016.85 
1168 1.1012 1.1012 0 0.00125866 0.00125866 1.81318e-05 49.2251 6883.08 9336.92 
1208 0.9854 0.9854 0 0.00130359 0.00130359 -1.58531e-05 44.6185 6750.23 9184.69 
1248 0.7692 0.7692 0 0.00130658 0.00130658 -7.13509e-05 34.1045 6097.54 8158.03 
9 0.281 0.281 0 0.00127312 0.00127312 -1.79022e-06 124.064 22874 31796 
49 9.6966 9.6966 0 0.0404603 0.0404603 5.19253e-05 407.25 29844.1 42092.3 
89 10.4546 10.4546 0 0.0433964 0.0433964 -3.89853e-05 435.979 27918.8 38748.4 
129 10.6544 10.6544 0 0.0436007 0.0436007 -3.88243e-05 437.657 24364.3 34467.2 
169 10.6496 10.6496 0 0.0436226 0.0436226 -8.91355e-06 437.82 24195.1 34353.5 
209 10.4158 10.4158 0 0.0429047 0.0429047 -0.000136002 430.216 25351 35613.1 
249 10.0128 10.0128 0 0.0414522 0.0414522 7.45848e-05 415.132 25155 35761.6 
289 9.0238 9.0238 0 0.0379577 0.0379577 7.63177e-05 379.339 27728.9 38630.8 
329 0.1048 0.1048 0 0.000323715 0.000323715 -1.64507e-05 41.899 7787.84 10857 
369 0.5112 0.5112 0 0.00056679 0.00056679 3.18869e-05 22.1558 3961.39 5193.47 
409 0.5906 0.5906 0 0.000397803 0.000397803 9.27934e-06 25.836 3986.39 5296.53 
449 0.619 0.619 0 0.000369292 0.000369292 2.10276e-05 27.4358 4042.97 5473.05 
489 0.651 0.651 0 0.00033264 0.00033264 2.14912e-05 28.8628 4033.7 5509.39 
529 0.6702 0.6702 0 0.000287796 0.000287796 -3.75834e-05 29.4601 4109.07 5455 
569 0.6566 0.6566 0 0.000321692 0.000321692 9.07144e-06 28.627 3856.83 5077.46 
609 0.6264 0.6264 0 0.000396938 0.000396938 1.62499e-05 27.0898 3639.03 4854.77 
649 0.0064 0.0064 0 -2.18208e-05 -2.18208e-05 4.2452e-06 2.3247 359.12 620.816 
689 0.1346 0.1346 0 -0.000542055 -0.000542055 9.28596e-06 5.47575 327.64 506.594 
729 0.1922 0.1922 0 -0.000786102 -0.000786102 -3.12546e-05 7.91495 594.044 759.549 
769 0.2152 0.2152 0 -0.000919492 -0.000919492 8.16044e-06 9.2335 624.957 1020.83 
809 0.2026 0.2026 0 -0.000882142 -0.000882142 1.41544e-05 8.82978 813.67 1117.56 
849 0.1902 0.1902 0 -0.000813923 -0.000813923 -1.75421e-05 8.1178 677.277 880.37 
889 0.13 0.13 0 -0.000536241 -0.000536241 1.4772e-05 5.34498 380.667 618.971 
929 0.0794 0.0794 0 -0.000310761 -0.000310761 -3.36879e-06 3.11902 233.097 361.802 
969 0.068 0.068 0 0.000135311 0.000135311 -3.33167e-06 31.3798 5719.85 7870.12 
1009 1.1574 1.1574 0 0.00122248 0.00122248 5.45014e-06 50.7754 5804.31 7983.02 
1049 1.2084 1.2084 0 0.00114748 0.00114748 -1.94788e-07 52.5608 5903.23 8175.79 
1089 1.2104 1.2104 0 0.00119382 0.00119382 6.37485e-06 53.4374 6606.6 8973.4 
1129 1.15 1.15 0 0.00123237 0.00123237 1.97856e-05 50.698 6233.59 8611.93 
1169 1.0904 1.0904 0 0.00121012 0.00121012 -3.07652e-05 48.5855 6511.34 9030.17 
1209 0.9694 0.9694 0 0.00127632 0.00127632 -2.73566e-05 43.2633 6605.22 9119.65 
1249 0.767 0.767 0 0.00133944 0.00133944 7.72991e-06 33.8756 6173.82 8160.1 
10 0.3408 0.3408 0 0.00157633 0.00157633 1.46402e-05 151.792 27937.7 37815 
50 9.8322 9.8322 0 0.0409951 0.0409951 -2.5381e-06 412.647 30086.4 42379 
90 10.2166 10.2166 0 0.042568 0.042568 8.9473e-06 427.833 27609.6 38521.5 
130 10.674 10.674 0 0.0438136 0.0438136 -9.79277e-05 439.988 24301.1 34952.4 
170 10.691 10.691 0 0.0440668 0.0440668 -3.68627e-05 442.251 24590.7 34342.3 
210 10.4494 10.4494 0 0.0433095 0.0433095 -6.6128e-05 434.242 26405.2 36269.5 
250 10.0874 10.0874 0 0.0416379 0.0416379 -0.000202256 417.167 25639.7 36449.1 
290 9.0428 9.0428 0 0.0379575 0.0379575 0.000179606 379.454 26797.2 38046.8 
330 0.0878 0.0878 0 0.00023786 0.00023786 -1.06886e-05 32.8896 5021.94 7776.47 
370 0.5 0.5 0 0.00055094 0.00055094 -8.84001e-06 21.4809 3526.67 4725.71 
410 0.5728 0.5728 0 0.000441926 0.000441926 1.60008e-05 25.1687 4081.55 5306.97 
450 0.6428 0.6428 0 0.000342378 0.000342378 -6.0853e-05 28.7836 4086.43 5431.06 
490 0.6576 0.6576 0 0.000320327 0.000320327 -8.92426e-07 28.8146 3720.53 5041.09 
530 0.6662 0.6662 0 0.000300693 0.000300693 -3.80671e-05 28.9996 3962.21 5320.24 
570 0.6558 0.6558 0 0.000325421 0.000325421 4.07326e-05 29.1173 3893.64 5015.8 
610 0.6296 0.6296 0 0.000387428 0.000387428 -2.09801e-05 27.5034 3538.42 4859.76 
650 0.0064 0.0064 0 -1.8882e-05 -1.8882e-05 1.13812e-06 1.93068 187.455 285.352 
690 0.14 0.14 0 -0.000575858 -0.000575858 1.41621e-06 5.82472 454.778 648.069 
730 0.192 0.192 0 -0.000803724 -0.000803724 1.27748e-05 8.11239 690.834 930.214 
770 0.2174 0.2174 0 -0.000917401 -0.000917401 7.80268e-06 9.23741 759.915 1109.07 
810 0.2222 0.2222 0 -0.000947064 -0.000947064 -1.67105e-05 9.49062 842.934 1175.29 
850 0.172 0.172 0 -0.000734735 -0.000734735 5.83297e-06 7.34417 598.34 908.187 
890 0.139 0.139 0 -0.000578852 -0.000578852 -5.3729e-06 5.78285 511.923 743.904 
930 0.0732 0.0732 0 -0.000284848 -0.000284848 3.26429e-06 2.86252 254.532 417.98 
970 0.189 0.189 0 0.000383082 0.000383082 -2.2231e-05 34.9686 6455.36 8173.41 
1010 1.1346 1.1346 0 0.00118005 0.00118005 -1.66749e-05 49.4466 5595.34 7770.21 
1050 1.2064 1.2064 0 0.00123624 0.00123624 -3.5507e-05 52.4002 6128.75 8455.74 
1090 1.1966 1.1966 0 0.00128971 0.00128971 -6.5145e-06 52.5148 6279.13 8606.37 
1130 1.1764 1.1764 0 0.00123487 0.00123487 -3.08035e-05 52.3419 6696.87 9263.83 
1170 1.104 1.104 0 0.0013249 0.0013249 -2.4263e-05 49.0661 6700.63 9146.8 
1210 0.9506 0.9506 0 0.00124713 0.00124713 -2.93202e-06 42.7173 6767.53 9232 
1250 0.7588 0.7588 0 0.00132039 0.00132039 -2.47778e-05 33.4442 6284.41 8640.82 
11 0.3828 0.3828 0 0.00179503 0.00179503 -2.43497e-05 174.518 33110.9 46048.5 
51 9.7258 9.7258 0 0.0406279 0.0406279 -0.00016239 409.024 30094.7 41963.4 
91 10.3942 10.3942 0 0.0433 0.0433 0.000138828 435.136 29299.4 40951.9 
131 10.7644 10.7644 0 0.0439809 0.0439809 7.02284e-05 441.7 24496.1 34932.8 
171 10.5916 10.5916 0 0.043406 0.043406 -0.000124542 435.507 25081.5 34808.3 
211 10.4202 10.4202 0 0.0431723 0.0431723 3.01518e-08 432.878 27051.6 37526.5 
251 9.9438 9.9438 0 0.0410785 0.0410785 0.00016124 411.741 24036.9 34139.4 
291 8.9228 8.9228 0 0.037587 0.037587 -6.63933e-05 375.592 28224.6 39332 
331 0.0676 0.0676 0 0.00015345 0.00015345 2.19266e-05 26.3306 3937.23 5695.13 
371 0.5002 0.5002 0 0.000530095 0.000530095 1.92314e-05 21.4313 3596.42 4783.98 
411 0.5894 0.5894 0 0.000444832 0.000444832 -1.35012e-07 25.8744 4054.46 5319.94 
451 0.6208 0.6208 0 0.000337508 0.000337508 -4.11138e-05 27.7601 3813.12 4977 
491 0.6512 0.6512 0 0.000333714 0.000333714 2.42735e-06 29.6156 4064.41 5449.17 
531 0.6752 0.6752 0 0.000333999 0.000333999 -2.22958e-06 29.8606 3959.35 5333.84 
571 0.6832 0.6832 0 0.000286831 0.000286831 -1.13623e-05 29.8036 3561.66 4955.71 
611 0.629 0.629 0 0.0004271 0.0004271 4.16776e-06 27.7738 3908.79 5132.02 
651 0.0072 0.0072 0 -2.92646e-05 -2.92646e-05 -3.88807e-06 2.9886 249.508 436.604 
691 0.1458 0.1458 0 -0.000604278 -0.000604278 2.18407e-05 6.10395 412.478 579.551 
731 0.1852 0.1852 0 -0.000778419 -0.000778419 1.62402e-06 7.84922 684.379 1011.29 
771 0.2182 0.2182 0 -0.000923556 -0.000923556 6.48595e-06 9.27082 699.65 996.71 
811 0.2134 0.2134 0 -0.000903005 -0.000903005 -2.82009e-06 9.03273 722.851 1048.93 
851 0.1672 0.1672 0 -0.000703486 -0.000703486 9.98511e-06 7.04141 666.964 924.854 
891 0.1302 0.1302 0 -0.000532776 -0.000532776 9.32467e-06 5.30715 426.213 588.361 
931 0.0786 0.0786 0 -0.000299162 -0.000299162 -2.44995e-06 3.01013 198.568 331.221 
971 0.185 0.185 0 0.000377164 0.000377164 -8.15416e-06 34.2808 6311.6 8129.62 
1011 1.1292 1.1292 0 0.00121827 0.00121827 1.32205e-05 49.5918 5509.35 7494.48 
1051 1.1966 1.1966 0 0.00118197 0.00118197 7.86395e-06 51.7641 5916.19 8141.2 
1091 1.197 1.197 0 0.00120435 0.00120435 3.01177e-05 52.7864 6606.61 8972.88 
1131 1.1566 1.1566 0 0.00125582 0.00125582 -3.20598e-05 51.1919 6914.69 9367.86 
1171 1.0904 1.0904 0 0.00135206 0.00135206 -2.43872e-05 49.3563 6953.29 9565.02 
1211 0.9686 0.9686 0 0.00129569 0.00129569 5.06273e-06 43.6634 6525.65 8894.93 
1251 0.7398 0.7398 0 0.00128457 0.00128457 1.21545e-06 32.3345 5860.24 8015.2 
12 0.451 0.451 0 0.00213166 0.00213166 2.12492e-05 208.556 36936.5 52351.3 
52 9.8364 9.8364 0 0.0408712 0.0408712 -0.000105364 411.553 30621 42277.4 
92 10.4992 10.4992 0 0.0435369 0.0435369 -9.68443e-06 437.551 28117.7 39703 
132 10.6258 10.6258 0 0.0436057 0.0436057 7.62402e-05 437.702 25160.2 35191.2 
172 10.6472 10.6472 0 0.0438051 0.0438051 0.000184801 439.517 25607.2 35646.5 
212 10.3858 10.3858 0 0.0431091 0.0431091 -1.87064e-05 432.238 26628.8 37188.8 
252 10.1128 10.1128 0 0.041801 0.041801 -0.000108173 418.84 25814.4 36920.7 
292 8.7488 8.7488 0 0.0368302 0.0368302 2.06206e-05 367.948 28075.7 39167.1 
332 0.0616 0.0616 0 0.000129659 0.000129659 1.54276e-05 23.7218 3942.28 6291.48 
372 0.51 0.51 0 0.000548235 0.000548235 1.1076e-05 22.1715 3982.86 5073.29 
412 0.5832 0.5832 0 0.000407236 0.000407236 3.07022e-05 25.8269 3995.31 5269.57 
452 0.6262 0.6262 0 0.000378006 0.000378006 7.85539e-06 27.9347 3936.23 5243.58 
492 0.6664 0.6664 0 0.000350883 0.000350883 1.42349e-05 29.4872 3878.08 5235.91 
532 0.6734 0.6734 0 0.00034484 0.00034484 -1.11034e-05 29.561 4018.94 5241.03 
572 0.6712 0.6712 0 0.00026571 0.00026571 -1.57661e-06 29.4365 3749.37 5078.73 
612 0.6122 0.6122 0 0.000338774 0.000338774 -2.0401e-05 26.9114 3693.8 5014.76 
652 0.0146 0.0146 0 -5.1243e-05 -5.1243e-05 1.52104e-06 2.05882 108.995 307.956 
692 0.1446 0.1446 0 -0.000598526 -0.000598526 -5.27326e-06 6.05485 414.151 612.331 
732 0.188 0.188 0 -0.000801577 -0.000801577 1.45969e-06 8.08766 523.9 817.02 
772 0.2126 0.2126 0 -0.000918084 -0.000918084 1.20909e-06 9.22496 802.142 1208.81 
812 0.2162 0.2162 0 -0.000950632 -0.000950632 -4.2232e-06 9.5196 758.704 1126.05 