ITEM: TIMESTEP
25000
ITEM: NUMBER OF SURFS
1272
ITEM: BOX BOUNDS oo rr pp
0 0.3
0 0.3
-0.5 0.5
ITEM: SURFS id f_4[1] f_4[2] f_4[3] f_4[4] f_4[5] f_4[6] f_4[7] f_4[8] f_4[9] 
1 0.0848 0.0848 0 0.000261346 0.000261346 7.85497e-06 35.5962 7659.07 11648.7 
41 9.55 9.55 0 0.0400162 0.0400162 -0.000165513 409.361 36074.5 50150.3 
81 10.4884 10.4884 0 0.0429023 0.0429023 -7.01956e-05 436.735 28333.4 39664.9 
121 10.7128 10.7128 0 0.0436971 0.0436971 1.08327e-05 443.476 26390.4 37542.2 
161 10.5294 10.5294 0 0.0429637 0.0429637 -3.23031e-05 435.539 26672.8 37168 
201 10.4058 10.4058 0 0.0424694 0.0424694 -0.000145757 430.147 23620.6 32935.6 
241 9.922 9.922 0 0.0405376 0.0405376 3.86191e-05 409.689 24823.3 35029 
281 9.0976 9.0976 0 0.0379711 0.0379711 -8.89884e-05 382.406 26554.8 36634.9 
321 0.358 0.358 0 0.00160626 0.00160626 -1.72949e-05 159.499 23533.6 31511.9 
361 0.3786 0.3786 0 0.000316744 0.000316744 -3.12604e-06 15.8535 2493.11 3391 
401 0.4396 0.4396 0 0.000273279 0.000273279 -1.02055e-06 18.9772 3068.77 3983.55 
441 0.4806 0.4806 0 0.000225911 0.000225911 -1.11947e-05 21.5572 3144 4098.63 
481 0.4778 0.4778 0 0.000136391 0.000136391 -4.45126e-06 21.0895 3210.93 4111.85 
521 0.4964 0.4964 0 7.58918e-05 7.58918e-05 2.40012e-06 21.3706 2738.5 3589.91 
561 0.4872 0.4872 0 4.03996e-05 4.03996e-05 -2.62528e-06 21.4055 2906.19 3821.29 
601 0.4938 0.4938 0 0.00011679 0.00011679 3.40261e-05 21.7123 2809.61 3752.86 
641 0.0164 0.0164 0 -2.22537e-05 -2.22537e-05 -1.36443e-06 6.8431 1526.68 1865.77 
681 0.1344 0.1344 0 -0.000539712 -0.000539712 1.28547e-05 5.55968 578.553 824.839 
721 0.1968 0.1968 0 -0.000802271 -0.000802271 5.81603e-07 8.26021 638.591 981.49 
761 0.2254 0.2254 0 -0.000964031 -0.000964031 -3.10218e-05 9.76892 856.604 1227.63 
801 0.202 0.202 0 -0.000876968 -0.000876968 -2.63913e-06 8.84443 736.945 1044.96 
841 0.1856 0.1856 0 -0.000795155 -0.000795155 1.60793e-06 8.01429 583.7 853.885 
881 0.1312 0.1312 0 -0.000543598 -0.000543598 -2.28432e-06 5.50983 402.041 580.071 
921 0.0742 0.0742 0 -0.000281008 -0.000281008 2.13757e-05 2.84183 243.804 345.676 
961 0.021 0.021 0 -1.99185e-05 -1.99185e-05 -1.48984e-09 8.03752 1389.14 2286.08 
1001 1.4534 1.4534 0 0.00199788 0.00199788 3.08873e-05 63.0793 6753.03 9050.59 
1041 1.587 1.587 0 0.00203953 0.00203953 -7.70841e-05 68.565 7412.3 10253.9 
1081 1.5838 1.5838 0 0.00204015 0.00204015 -2.53256e-05 68.9999 7688.16 10823.2 
1121 1.5718 1.5718 0 0.00198761 0.00198761 4.72333e-05 68.9238 8196.53 11177.1 
1161 1.4826 1.4826 0 0.00206306 0.00206306 4.09886e-06 65.9145 8208.95 11444.6 
1201 1.3536 1.3536 0 0.00201781 0.00201781 -2.26049e-05 61.2253 9166.5 12507.1 
1241 1.0918 1.0918 0 0.00196083 0.00196083 5.0194e-05 49.595 8566.03 11709.9 
2 0.1116 0.1116 0 0.000363457 0.000363457 1.25162e-05 46.8804 7717.77 11934 
42 9.6704 9.6704 0 0.0402742 0.0402742 -8.86116e-08 411.617 34139 48063.9 
82 10.5242 10.5242 0 0.0430772 0.0430772 5.03089e-05 438.583 28822.6 40057.2 
122 10.6992 10.6992 0 0.0434515 0.0434515 -7.6085e-05 441.335 25756.1 35982.7 
162 10.4682 10.4682 0 0.042918 0.042918 3.39981e-05 435.366 26792.8 37707.2 
202 10.478 10.478 0 0.0426015 0.0426015 -3.96972e-05 431.855 24180.6 33429.5 
242 9.966 9.966 0 0.0406577 0.0406577 -2.17736e-05 411.331 23112.6 33336.2 
282 8.84 8.84 0 0.0369222 0.0369222 -0.000191098 371.672 27447.9 37849.5 
322 0.3326 0.3326 0 0.00144976 0.00144976 8.83461e-06 145.083 23721.1 31014.1 
362 0.3688 0.3688 0 0.00035382 0.00035382 -4.85576e-05 15.0908 2772.3 3552.62 
402 0.413 0.413 0 0.000218914 0.000218914 -6.15083e-06 17.7 3003.51 3903.03 
442 0.471 0.471 0 0.000205964 0.000205964 1.12841e-05 20.3146 3216.04 4068.87 
482 0.4826 0.4826 0 0.00013668 0.00013668 1.44703e-05 21.2483 2961.85 3872.07 
522 0.4952 0.4952 0 9.71274e-05 9.71274e-05 -1.82711e-06 21.4826 3007.02 4057.55 
562 0.528 0.528 0 0.000100886 0.000100886 2.13625e-05 22.8179 3223.15 4277.46 
602 0.4678 0.4678 0 0.00010473 0.00010473 -9.86407e-06 20.5777 2825.81 3751.58 
642 0.0148 0.0148 0 -2.50817e-05 -2.50817e-05 4.65506e-06 5.80286 624.896 847.738 
682 0.1502 0.1502 0 -0.000599889 -0.000599889 1.2388e-05 6.18282 456.383 788.55 
722 0.1974 0.1974 0 -0.000820502 -0.000820502 -1.49884e-05 8.39932 804.203 1208.01 
762 0.2134 0.2134 0 -0.00091154 -0.00091154 2.62714e-05 9.27445 875.761 1245.34 
802 0.2066 0.2066 0 -0.000870853 -0.000870853 -1.72943e-05 8.78544 752.659 1008.61 
842 0.1752 0.1752 0 -0.000706351 -0.000706351 6.09308e-07 7.10795 569.045 843.308 
882 0.1356 0.1356 0 -0.000543959 -0.000543959 -1.07915e-05 5.45725 486.2 731.366 
922 0.0744 0.0744 0 -0.000281448 -0.000281448 -3.23498e-06 2.88759 216.349 323.046 
962 0.0278 0.0278 0 -6.18199e-06 -6.18199e-06 -1.1672e-05 9.78945 1543.41 2485.79 
1002 1.45 1.45 0 0.00196747 0.00196747 7.26453e-05 62.2389 6742.96 9580.21 
1042 1.6056 1.6056 0 0.00203679 0.00203679 -5.56232e-05 69.0039 6664.32 9610.64 
1082 1.5546 1.5546 0 0.00201317 0.00201317 3.0863e-05 68.1413 7773.36 10828.7 
1122 1.5486 1.5486 0 0.00204111 0.00204111 -1.5671e-05 68.1808 7967.92 11164.3 
1162 1.4518 1.4518 0 0.00194109 0.00194109 4.49194e-05 64.5891 8050.26 11147.4 
1202 1.351 1.351 0 0.00208703 0.00208703 -5.07917e-05 61.1488 9210.19 12728 
1242 1.093 1.093 0 0.00203209 0.00203209 8.12346e-06 49.9463 8929.77 12087.2 
3 0.126 0.126 0 0.000466606 0.000466606 1.42954e-05 54.2332 11684.4 16776.8 
43 9.6976 9.6976 0 0.0402976 0.0402976 -5.13848e-05 411.255 33231 47090.8 
83 10.3984 10.3984 0 0.0427952 0.0427952 1.92977e-06 435.533 29581.2 41217.6 
123 10.6552 10.6552 0 0.0433758 0.0433758 2.15211e-05 440.177 25764.8 36316.2 
163 10.6104 10.6104 0 0.0432315 0.0432315 -8.45468e-05 438.537 25137.8 35536.2 
203 10.3702 10.3702 0 0.0422323 0.0422323 4.52762e-05 427.564 24463.5 34073.9 
243 9.9876 9.9876 0 0.0408054 0.0408054 -2.64661e-05 412.688 23366.9 33219.2 
283 8.8678 8.8678 0 0.0369632 0.0369632 6.93322e-05 371.842 26624.8 37916.1 
323 0.2574 0.2574 0 0.00110123 0.00110123 -8.99364e-06 112.242 19104.4 25457.4 
363 0.3864 0.3864 0 0.000297224 0.000297224 5.12457e-06 15.9224 2478.6 3453.33 
403 0.4256 0.4256 0 0.00027133 0.00027133 1.47564e-05 18.4814 3116.52 4018.4 
443 0.4676 0.4676 0 0.000153839 0.000153839 1.0731e-06 20.3996 2912.66 3797.46 
483 0.501 0.501 0 9.86346e-05 9.86346e-05 -1.06691e-06 22.0655 3118.85 4079.73 
523 0.5108 0.5108 0 0.000110156 0.000110156 -1.15382e-06 22.3182 2894.04 3794.45 
563 0.5096 0.5096 0 8.55881e-05 8.55881e-05 -7.40201e-06 22.3214 3217.65 4309.64 
603 0.4748 0.4748 0 0.000121829 0.000121829 -4.62033e-05 21.0259 2738.65 3707.95 
643 0.0138 0.0138 0 -2.74887e-05 -2.74887e-05 -2.95409e-07 5.2265 570.767 766.357 
683 0.1326 0.1326 0 -0.000533292 -0.000533292 -4.4448e-06 5.50758 485.496 705.183 
723 0.1946 0.1946 0 -0.000808822 -0.000808822 -2.44239e-05 8.29883 641.949 917.541 
763 0.2166 0.2166 0 -0.000892524 -0.000892524 2.49025e-05 9.04898 778.949 1106.13 
803 0.1974 0.1974 0 -0.000843078 -0.000843078 2.90721e-05 8.48534 622.808 933.341 
843 0.1676 0.1676 0 -0.000699813 -0.000699813 5.22106e-06 7.00283 388.489 638.053 
883 0.1292 0.1292 0 -0.000532632 -0.000532632 -1.78681e-05 5.37243 418.178 590.541 
923 0.0662 0.0662 0 -0.00023655 -0.00023655 -9.93299e-06 2.41775 161.657 322.225 
963 0.0348 0.0348 0 1.08355e-06 1.08355e-06 7.64301e-06 13.3861 2049.69 2996.78 
1003 1.4476 1.4476 0 0.00200773 0.00200773 1.01905e-05 62.7112 6973.29 9679.28 
1043 1.5962 1.5962 0 0.00204348 0.00204348 4.76526e-05 69.5581 7331.23 10286.6 
1083 1.5936 1.5936 0 0.00200039 0.00200039 -1.16124e-06 70.1022 7707.14 10854.4 
1123 1.5614 1.5614 0 0.00206285 0.00206285 -5.0394e-06 68.4701 7837.71 10793.7 
1163 1.4412 1.4412 0 0.00201892 0.00201892 -2.52717e-05 64.5965 8214.47 11427.3 
1203 1.3448 1.3448 0 0.00207909 0.00207909 1.44258e-07 60.4741 8991.69 12365.9 
1243 1.051 1.051 0 0.00195024 0.00195024 8.01636e-06 47.384 8554.85 11584.3 
4 0.1408 0.1408 0 0.000547869 0.000547869 1.7629e-05 61.123 12983.5 17765.4 
44 9.7898 9.7898 0 0.0406293 0.0406293 0.000116149 414.942 31785.3 44995.7 
84 10.3852 10.3852 0 0.0428944 0.0428944 -1.01804e-05 436.338 31155 42834.7 
124 10.6574 10.6574 0 0.0434289 0.0434289 5.17482e-05 440.915 25791 36091.8 
164 10.6624 10.6624 0 0.0431525 0.0431525 4.70468e-05 437.553 24569.5 34405.3 
204 10.346 10.346 0 0.0423425 0.0423425 -8.676e-05 428.562 25577.2 35944.6 
244 9.9498 9.9498 0 0.0406944 0.0406944 9.00751e-05 411.414 24304.8 34348.4 
284 8.9996 8.9996 0 0.0374769 0.0374769 -9.4315e-05 377.272 26836.7 37485.6 
324 0.2232 0.2232 0 0.000912794 0.000912794 7.92432e-06 93.8248 14347.3 19471.8 
364 0.3706 0.3706 0 0.000293527 0.000293527 3.2568e-06 15.7006 2652 3353.7 
404 0.4436 0.4436 0 0.000273211 0.000273211 -3.32488e-05 19.1957 3142.97 4072.68 
444 0.4704 0.4704 0 0.000148757 0.000148757 1.9313e-06 20.4275 3095.39 4034.02 
484 0.4702 0.4702 0 0.000106825 0.000106825 -7.23983e-06 20.8284 3011.33 3987.22 
524 0.5024 0.5024 0 9.05022e-05 9.05022e-05 -2.09373e-05 22.0236 2955.99 3797.22 
564 0.5086 0.5086 0 4.83199e-05 4.83199e-05 -8.67061e-06 22.4158 2957.78 3953.64 
604 0.4818 0.4818 0 0.000131586 0.000131586 -3.62854e-06 20.9943 2787.64 3738.3 
644 0.0102 0.0102 0 -2.43354e-05 -2.43354e-05 -6.93015e-07 3.64453 404.563 787.029 
684 0.1538 0.1538 0 -0.000618307 -0.000618307 9.8643e-06 6.37148 539.029 813.833 
724 0.2174 0.2174 0 -0.000929063 -0.000929063 -9.18753e-07 9.48935 816.106 1192.2 
764 0.2178 0.2178 0 -0.000914764 -0.000914764 -3.13832e-05 9.26123 761.986 1054.75 
804 0.2024 0.2024 0 -0.000861318 -0.000861318 -1.73686e-06 8.71423 694.135 979.854 
844 0.1694 0.1694 0 -0.000725513 -0.000725513 -9.3002e-06 7.30169 590.532 874.645 
884 0.112 0.112 0 -0.000458521 -0.000458521 3.77291e-06 4.61809 360.442 504.337 
924 0.0756 0.0756 0 -0.000283591 -0.000283591 -3.24106e-06 2.89604 264.378 410.922 
964 0.0366 0.0366 0 7.41015e-06 7.41015e-06 -1.75287e-06 14.7642 2398.5 3489.13 
1004 1.442 1.442 0 0.00194122 0.00194122 -1.71922e-06 62.7489 6723.33 9618.49 
1044 1.5932 1.5932 0 0.00200152 0.00200152 2.10755e-05 69.4242 7520.63 10466.7 
1084 1.5886 1.5886 0 0.00196878 0.00196878 1.91791e-06 69.4635 7331.01 10171.3 
1124 1.5746 1.5746 0 0.00210352 0.00210352 1.61385e-05 68.9383 8151.9 11492.6 
1164 1.4764 1.4764 0 0.00202787 0.00202787 1.01446e-05 65.5922 8540.59 11730.1 
1204 1.3352 1.3352 0 0.00201262 0.00201262 7.27391e-06 60.5064 8746.54 11737.6 
1244 1.045 1.045 0 0.00194224 0.00194224 -1.77098e-05 47.1264 8071.15 10752.3 
5 0.1854 0.1854 0 0.000808793 0.000808793 1.03052e-05 85.1792 17555.4 25422.9 
45 9.759 9.759 0 0.0403673 0.0403673 -0.000116511 412.31 30710.4 43518.1 
85 10.4752 10.4752 0 0.0428943 0.0428943 2.49419e-06 436.445 29385.6 41489.7 
125 10.6304 10.6304 0 0.0433622 0.0433622 4.48285e-05 440.35 27308.5 38415.4 
165 10.7024 10.7024 0 0.0432951 0.0432951 0.000157736 439.246 23457.3 33370.4 
205 10.2022 10.2022 0 0.0418812 0.0418812 -6.3424e-05 423.877 26718.1 37094.6 
245 9.9008 9.9008 0 0.0404913 0.0404913 4.63596e-05 409.543 23756.2 33523.5 
285 8.8394 8.8394 0 0.0367724 0.0367724 6.41172e-05 370.361 25146.6 35543.3 
325 0.1826 0.1826 0 0.000704898 0.000704898 2.29581e-05 77.9717 12647.7 16895 
365 0.3916 0.3916 0 0.000369742 0.000369742 4.62615e-06 16.3508 2999.76 3869.42 
405 0.4622 0.4622 0 0.000224821 0.000224821 -1.64324e-05 19.7043 3062.35 3983.07 
445 0.4514 0.4514 0 0.000201825 0.000201825 1.51573e-05 19.916 3118.84 4076.63 
485 0.4782 0.4782 0 0.000167548 0.000167548 3.3352e-06 21.3123 3243.41 4172.74 
525 0.4902 0.4902 0 8.46915e-05 8.46915e-05 -1.2674e-05 21.5179 3103.66 3977.29 
565 0.5036 0.5036 0 0.000129021 0.000129021 -4.86801e-05 22.0884 3185.75 4116.44 
605 0.4664 0.4664 0 0.000102586 0.000102586 3.98775e-05 20.1768 2738.1 3539.17 
645 0.0084 0.0084 0 -2.39456e-05 -2.39456e-05 7.54541e-07 3.121 361.888 409.122 
685 0.1504 0.1504 0 -0.000616591 -0.000616591 -7.01405e-06 6.34209 466.029 732.722 
725 0.187 0.187 0 -0.000769857 -0.000769857 2.70443e-05 7.92465 600.796 920.542 
765 0.2138 0.2138 0 -0.000899209 -0.000899209 -1.13736e-05 9.15689 742.062 1142.3 
805 0.1952 0.1952 0 -0.000843497 -0.000843497 -1.07122e-05 8.48594 700.455 1041.23 
845 0.1722 0.1722 0 -0.000719227 -0.000719227 8.93303e-06 7.22151 526.958 648.39 
885 0.1232 0.1232 0 -0.000494637 -0.000494637 6.11421e-06 5.00401 462.255 709.666 
925 0.0706 0.0706 0 -0.000262669 -0.000262669 -9.07543e-06 2.68736 208.837 346.192 
965 0.0464 0.0464 0 3.22237e-05 3.22237e-05 3.13897e-06 18.7455 2862.19 3608.56 
1005 1.4728 1.4728 0 0.00203367 0.00203367 -3.67601e-05 64.7614 6986.81 9706.6 
1045 1.5604 1.5604 0 0.00194481 0.00194481 -6.46079e-05 67.766 7129.75 9865.26 
1085 1.5854 1.5854 0 0.0019911 0.0019911 -4.26689e-05 68.8994 7909.26 11029.7 
1125 1.5692 1.5692 0 0.00208487 0.00208487 -4.77627e-05 69.0115 8449.34 11537.4 
1165 1.4654 1.4654 0 0.00203154 0.00203154 -4.29053e-05 65.5261 8392.73 11732.5 
1205 1.3218 1.3218 0 0.00205896 0.00205896 -1.71523e-05 59.1549 9061.25 12183.9 
1245 1.0372 1.0372 0 0.00200687 0.00200687 5.754e-05 46.9806 8329.25 11575.5 
6 0.2014 0.2014 0 0.000880352 0.000880352 3.69609e-06 90.4166 19596.9 27327.3 
46 9.8262 9.8262 0 0.0406682 0.0406682 -0.000130938 415.126 31115.4 43576.7 
86 10.4716 10.4716 0 0.0429499 0.0429499 1.09996e-06 436.926 27290.3 38217.7 
126 10.6396 10.6396 0 0.0435046 0.0435046 4.69225e-08 441.712 27156 37853.3 
166 10.697 10.697 0 0.043392 0.043392 -3.38601e-05 440.05 24863.7 34664.8 
206 10.3672 10.3672 0 0.0423548 0.0423548 1.54394e-05 428.856 25088.2 35539 
246 9.9384 9.9384 0 0.0408805 0.0408805 5.71957e-05 412.877 25130.4 35502.4 
286 8.803 8.803 0 0.0366392 0.0366392 -8.27256e-05 368.905 24754.6 35237.8 
326 0.1598 0.1598 0 0.000588101 0.000588101 -3.18721e-06 67.4183 10697 15200.2 
366 0.3684 0.3684 0 0.000303039 0.000303039 4.01856e-05 15.5543 2630.7 3471.3 
406 0.4368 0.4368 0 0.000253481 0.000253481 5.65776e-07 19.2194 3020.11 3891.04 
446 0.4658 0.4658 0 0.00018411 0.00018411 2.17814e-06 20.6483 3197.9 4141.03 
486 0.4964 0.4964 0 9.5995e-05 9.5995e-05 -2.2634e-05 21.9552 3230.61 4354.41 
526 0.4998 0.4998 0 0.000125164 0.000125164 5.84113e-06 22.0146 3135.18 4189.18 
566 0.5008 0.5008 0 0.000119312 0.000119312 -1.67159e-07 21.7633 3141.17 4044.05 
606 0.4604 0.4604 0 0.000136013 0.000136013 7.26849e-06 20.1072 2811.23 3823.73 
646 0.0078 0.0078 0 -2.53109e-05 -2.53109e-05 -1.9551e-06 3.06341 287.835 723.509 
686 0.1506 0.1506 0 -0.000595419 -0.000595419 7.65471e-07 6.14035 428.717 693.631 
726 0.2048 0.2048 0 -0.000872131 -0.000872131 1.51174e-05 8.89112 759.246 1130.36 
766 0.2114 0.2114 0 -0.00088747 -0.00088747 2.22967e-05 9.02443 785.787 1044.31 
806 0.1958 0.1958 0 -0.000836662 -0.000836662 -1.34342e-05 8.43654 611.727 852.124 
846 0.176 0.176 0 -0.000726444 -0.000726444 -8.98125e-06 7.27355 631.329 909.061 
886 0.1192 0.1192 0 -0.00046048 -0.00046048 1.4275e-05 4.67878 391.799 634.178 
926 0.0642 0.0642 0 -0.000225723 -0.000225723 3.75868e-06 2.31699 174.756 280.852 
966 0.0492 0.0492 0 4.9574e-05 4.9574e-05 -3.19542e-06 21.6076 4003.94 5397.52 
1006 1.4742 1.4742 0 0.00199948 0.00199948 3.42469e-05 64.015 6950.22 9500.21 
1046 1.567 1.567 0 0.0019927 0.0019927 3.54489e-05 67.6397 7083.66 9778.04 
1086 1.558 1.558 0 0.00204622 0.00204622 2.01534e-05 68.8028 7369.93 10463.2 
1126 1.5724 1.5724 0 0.00209319 0.00209319 2.25303e-05 69.0267 8388.03 11544.5 
1166 1.4596 1.4596 0 0.00206174 0.00206174 -3.27312e-05 65.0985 8451.31 11620.2 
1206 1.3246 1.3246 0 0.00202853 0.00202853 -2.85513e-05 60.1921 8952.34 12283.8 
1246 1.0124 1.0124 0 0.00201409 0.00201409 1.43972e-07 46.112 8449.76 11642.6 
7 0.2238 0.2238 0 0.00101576 0.00101576 -2.71351e-05 104.209 17422.9 25514.3 
47 9.8188 9.8188 0 0.0406475 0.0406475 2.1507e-05 414.876 31751 44180 
87 10.5228 10.5228 0 0.0429999 0.0429999 -4.94844e-05 437.016 26851 38231.5 
127 10.6414 10.6414 0 0.04365 0.04365 0.000185132 443.205 28793.8 40075.2 
167 10.6146 10.6146 0 0.0430453 0.0430453 -5.30428e-05 436.485 23988.3 33361.6 
207 10.3294 10.3294 0 0.041936 0.041936 8.33494e-05 424.495 22886.1 32417.2 
247 9.7788 9.7788 0 0.0404144 0.0404144 -0.000143713 408.117 26345.3 36310.9 
287 8.7904 8.7904 0 0.0365034 0.0365034 1.9107e-05 367.563 25068.7 35282.4 
327 0.125 0.125 0 0.00043417 0.00043417 -1.62081e-05 51.0176 7675.4 11593.6 
367 0.3832 0.3832 0 0.000300928 0.000300928 4.85744e-05 16.4339 2680.02 3409.69 
407 0.4376 0.4376 0 0.000213272 0.000213272 3.11353e-05 18.905 3012.24 3950.45 
447 0.4578 0.4578 0 0.000187886 0.000187886 -3.04513e-05 20.3375 3284.31 4141.37 
487 0.4856 0.4856 0 9.02838e-05 9.02838e-05 2.47552e-06 21.6207 3068.77 4048.38 
527 0.4984 0.4984 0 8.55926e-05 8.55926e-05 5.3901e-06 22.224 3058.24 4110.05 
567 0.4878 0.4878 0 8.24497e-05 8.24497e-05 -2.51963e-05 21.5259 2827.38 3747.94 
607 0.4686 0.4686 0 0.000136865 0.000136865 5.41916e-06 20.6522 2881.28 3776.89 
647 0.0078 0.0078 0 -2.64257e-05 -2.64257e-05 4.36713e-06 2.77532 406.813 638.267 
687 0.1668 0.1668 0 -0.000676344 -0.000676344 -1.78097e-05 6.99506 597.519 882.509 
727 0.1992 0.1992 0 -0.000844563 -0.000844563 7.76221e-06 8.63759 728.338 1098.21 
767 0.2096 0.2096 0 -0.000893797 -0.000893797 9.39361e-06 9.07889 738.23 1051.31 
807 0.2056 0.2056 0 -0.000860055 -0.000860055 1.69103e-05 8.7269 663.916 962.067 
847 0.167 0.167 0 -0.000705765 -0.000705765 1.77413e-05 7.14316 517.36 765.062 
887 0.1298 0.1298 0 -0.000524281 -0.000524281 5.97734e-06 5.29076 468.032 667.097 
927 0.0716 0.0716 0 -0.000262087 -0.000262087 2.25854e-06 2.6994 179.472 279.869 
967 0.0686 0.0686 0 0.000101724 0.000101724 -2.92304e-06 29.6771 5226.84 6992.13 
1007 1.4612 1.4612 0 0.00198401 0.00198401 5.76218e-05 63.1721 6462.6 9013.58 
1047 1.6004 1.6004 0 0.00205162 0.00205162 8.8443e-06 69.7148 7347.67 10394.2 
1087 1.569 1.569 0 0.00201893 0.00201893 6.69197e-07 68.187 7445.97 10374.1 
1127 1.5232 1.5232 0 0.00198985 0.00198985 -2.68706e-05 66.8131 7692.27 10695.1 
1167 1.489 1.489 0 0.00206164 0.00206164 -6.75638e-05 66.4656 8821.55 12126.6 
1207 1.3048 1.3048 0 0.00203081 0.00203081 2.4328e-05 58.3886 8629.45 11794.6 
1247 1.0314 1.0314 0 0.00203725 0.00203725 2.89774e-06 46.7989 8700.89 11664.5 
8 0.2556 0.2556 0 0.00112764 0.00112764 1.3367e-05 112.262 20340.1 28289.7 
48 9.8324 9.8324 0 0.0408156 0.0408156 3.35051e-05 417.035 33155.4 45971.3 
88 10.6 10.6 0 0.043211 0.043211 4.02409e-05 439.443 27240.8 38291.4 
128 10.5476 10.5476 0 0.0433615 0.0433615 -0.000141013 440.005 27438.5 38877.6 
168 10.6368 10.6368 0 0.0431631 0.0431631 0.000111813 437.435 24425.5 34462.2 
208 10.3842 10.3842 0 0.04208 0.04208 -0.000113663 426.023 23253.7 32802.9 
248 9.7382 9.7382 0 0.0402958 0.0402958 0.000126425 406.886 27007.3 37187.4 
288 8.712 8.712 0 0.0364038 0.0364038 -4.73773e-05 366.457 26123.3 36321 
328 0.1172 0.1172 0 0.000325522 0.000325522 1.50804e-05 46.2471 5944.33 8758.92 
368 0.3808 0.3808 0 0.000294447 0.000294447 3.84058e-05 16.2467 2701.01 3614.41 
408 0.445 0.445 0 0.00019556 0.00019556 -4.97354e-06 19.6793 3081.47 3989.56 
448 0.4768 0.4768 0 0.000198627 0.000198627 -2.37768e-05 21.0072 3317.92 4219.92 
488 0.468 0.468 0 0.000129483 0.000129483 1.87453e-05 20.364 2900.19 3799.41 
528 0.4888 0.4888 0 8.14454e-05 8.14454e-05 8.05254e-06 21.6354 2916.46 3896.04 
568 0.5022 0.5022 0 7.92367e-05 7.92367e-05 4.39858e-06 22.0335 3062.73 4002.8 
608 0.4528 0.4528 0 0.000173237 0.000173237 -4.23818e-06 19.9015 2880.65 3810.75 
648 0.0046 0.0046 0 -1.57137e-05 -1.57137e-05 -4.73327e-06 1.6722 341.357 413.13 
688 0.1566 0.1566 0 -0.000631935 -0.000631935 1.9397e-05 6.54483 560.115 889.3 
728 0.1962 0.1962 0 -0.000829783 -0.000829783 1.32929e-05 8.52216 628.079 943.668 
768 0.2134 0.2134 0 -0.00091741 -0.00091741 -1.9087e-05 9.29069 711.987 1020.23 
808 0.2086 0.2086 0 -0.000891353 -0.000891353 -5.19019e-06 9.00659 785.047 1098.63 
848 0.1782 0.1782 0 -0.00074922 -0.00074922 -1.87264e-05 7.52861 638.413 920.383 
888 0.1216 0.1216 0 -0.000503813 -0.000503813 3.78761e-08 5.10194 415.105 579.602 
928 0.067 0.067 0 -0.000238756 -0.000238756 1.43358e-05 2.48517 158.694 278.681 
968 0.075 0.075 0 0.000144476 0.000144476 -5.3683e-06 34.8228 6632.22 8650.08 
1008 1.4926 1.4926 0 0.0020043 0.0020043 1.92773e-06 64.5807 6976.44 9528.49 
1048 1.5586 1.5586 0 0.00203553 0.00203553 -1.07768e-05 67.4817 7131.91 10047.7 
1088 1.5472 1.5472 0 0.00201941 0.00201941 -2.03807e-05 68.4176 7420.68 10533 
1128 1.5278 1.5278 0 0.00210203 0.00210203 4.95023e-05 67.7781 8478.4 11571.5 
1168 1.4802 1.4802 0 0.00207062 0.00207062 -1.3911e-05 65.716 8164.54 11205.8 
1208 1.326 1.326 0 0.0019924 0.0019924 2.01736e-05 59.7864 8778.04 11971.2 
1248 1.0472 1.0472 0 0.00202327 0.00202327 1.12925e-05 47.0184 8595.51 11551.1 
9 0.2966 0.2966 0 0.00132662 0.00132662 1.31057e-05 130.549 23727.2 32273.3 
49 9.9396 9.9396 0 0.0414183 0.0414183 -0.000100091 423.182 35818.7 49560.6 
89 10.626 10.626 0 0.0433246 0.0433246 -0.00012841 440.514 27345.6 38646.1 
129 10.715 10.715 0 0.0437454 0.0437454 -5.41249e-08 444.028 24771 35603 
169 10.575 10.575 0 0.0429909 0.0429909 -8.34056e-05 435.872 25605.4 35854.9 
209 10.3892 10.3892 0 0.0422756 0.0422756 -4.02305e-05 428.157 23806.2 33931.1 
249 9.7936 9.7936 0 0.0402887 0.0402887 0.000134559 406.842 26145.9 36160.9 
289 8.7166 8.7166 0 0.0364004 0.0364004 -8.96665e-06 365.985 26663.6 37529.2 
329 0.0916 0.0916 0 0.000246026 0.000246026 1.04361e-05 37.3635 4667.39 7355.2 
369 0.3698 0.3698 0 0.000323673 0.000323673 9.60336e-06 15.5382 2662.57 3527.04 
409 0.4364 0.4364 0 0.000232705 0.000232705 -1.54021e-05 18.7517 3043.88 4007.82 
449 0.463 0.463 0 0.000178739 0.000178739 4.50331e-06 20.5131 3197.34 4044.03 
489 0.5024 0.5024 0 0.000105196 0.000105196 2.47312e-06 22.2602 3227.74 3966.96 
529 0.4994 0.4994 0 6.87212e-05 6.87212e-05 -6.08544e-06 21.6232 3105.3 4106.67 
569 0.4958 0.4958 0 8.44088e-05 8.44088e-05 -2.97347e-05 21.6365 2786.22 3660.51 
609 0.4748 0.4748 0 0.000152639 0.000152639 -6.73863e-05 20.78 2623.77 3697.97 
649 0.0068 0.0068 0 -2.41176e-05 -2.41176e-05 2.16009e-06 2.43899 269.162 602.502 
689 0.1512 0.1512 0 -0.000620423 -0.000620423 -1.5176e-05 6.39331 561.719 816.437 
729 0.1984 0.1984 0 -0.000813537 -0.000813537 -6.73315e-07 8.30861 573.072 822.543 
769 0.215 0.215 0 -0.00090518 -0.00090518 3.66612e-06 9.21825 749.573 1028.64 
809 0.2018 0.2018 0 -0.000861194 -0.000861194 -6.9507e-06 8.67348 678.394 926.9 
849 0.1694 0.1694 0 -0.000709157 -0.000709157 1.9963e-05 7.22443 570.67 862.673 
889 0.1326 0.1326 0 -0.000530745 -0.000530745 6.70068e-06 5.36639 461.354 684 
929 0.0656 0.0656 0 -0.000239506 -0.000239506 -3.0298e-06 2.49252 183.269 357.884 
969 0.0902 0.0902 0 0.000198443 0.000198443 -1.14735e-05 40.6792 7035.88 8833.87 
1009 1.46 1.46 0 0.0019772 0.0019772 8.24573e-06 62.9238 6717.01 9379.74 
1049 1.5754 1.5754 0 0.00198352 0.00198352 3.92916e-05 68.8092 7219.66 9989.63 
1089 1.599 1.599 0 0.00203468 0.00203468 5.17719e-06 69.8694 7766.16 10737.5 
1129 1.5486 1.5486 0 0.00205116 0.00205116 -1.26455e-05 67.5403 7755.05 10927.7 
1169 1.4696 1.4696 0 0.00202791 0.00202791 -1.66338e-05 65.5274 8261.98 11766.4 
1209 1.2878 1.2878 0 0.00198975 0.00198975 -4.81311e-06 58.3471 8671.46 12058.5 
1249 0.991 0.991 0 0.00193165 0.00193165 1.05548e-05 44.6589 8299.97 11132.6 
10 0.3512 0.3512 0 0.00159955 0.00159955 4.16514e-06 156.115 27539.6 39690.4 
50 9.8914 9.8914 0 0.0411897 0.0411897 3.46423e-05 420.624 34241.3 47845.5 
90 10.5772 10.5772 0 0.0433382 0.0433382 6.42412e-05 440.692 27815.6 38601.7 
130 10.6876 10.6876 0 0.0433819 0.0433819 1.62556e-05 440.377 24236.8 34560.3 
170 10.4734 10.4734 0 0.0429257 0.0429257 -1.63842e-05 435.16 26634 37198.2 
210 10.2868 10.2868 0 0.0419387 0.0419387 -2.70631e-05 424.557 23500 32889 
250 9.809 9.809 0 0.0402553 0.0402553 -3.62834e-05 406.606 23823.3 33920 
290 8.5772 8.5772 0 0.0359654 0.0359654 6.32413e-05 361.501 27361.8 38035.9 
330 0.0786 0.0786 0 0.000180151 0.000180151 -3.56552e-06 29.1098 4869.67 8031.57 
370 0.3896 0.3896 0 0.000327279 0.000327279 1.07601e-05 16.5011 2655.55 3507.12 
410 0.436 0.436 0 0.000236539 0.000236539 -1.53431e-05 18.8166 2966.69 3993.93 
450 0.4806 0.4806 0 0.000182392 0.000182392 -5.13444e-05 21.286 3544.78 4478.96 
490 0.483 0.483 0 0.000145484 0.000145484 2.14049e-05 21.4708 3160.51 4216.86 
530 0.4948 0.4948 0 0.000100674 0.000100674 2.14458e-05 21.8707 3045.04 4059.39 
570 0.491 0.491 0 6.79818e-05 6.79818e-05 1.94142e-05 21.5204 2761.18 3834.12 
610 0.4816 0.4816 0 0.000173964 0.000173964 -2.00657e-06 20.5161 2903.65 3796.33 
650 0.0066 0.0066 0 -2.57012e-05 -2.57012e-05 -3.67983e-06 2.62385 189.499 224.116 
690 0.1564 0.1564 0 -0.000630442 -0.000630442 5.64369e-06 6.46599 472.409 726.66 
730 0.2084 0.2084 0 -0.000885325 -0.000885325 1.07519e-05 9.05705 681.382 1157.9 
770 0.22 0.22 0 -0.000947819 -0.000947819 -4.22631e-05 9.58479 752.883 1031.87 
810 0.2062 0.2062 0 -0.000864432 -0.000864432 1.46686e-06 8.70612 678.692 1008.45 
850 0.1572 0.1572 0 -0.0006496 -0.0006496 1.11482e-05 6.56436 604.011 828.897 
890 0.1194 0.1194 0 -0.000487887 -0.000487887 9.06087e-06 4.94953 412.517 562.921 
930 0.0584 0.0584 0 -0.000207023 -0.000207023 1.20311e-05 2.16093 163.364 253.218 
970 0.2392 0.2392 0 0.000565717 0.000565717 3.90723e-06 43.9474 7499.03 9615.37 
1010 1.5198 1.5198 0 0.00206377 0.00206377 -5.20709e-05 65.4822 6844.11 9460.76 
1050 1.5808 1.5808 0 0.00196554 0.00196554 3.24828e-05 68.0614 6787.8 9695.25 
1090 1.5892 1.5892 0 0.00213195 0.00213195 -8.16075e-06 69.7674 7870.34 10896.1 
1130 1.55 1.55 0 0.00205719 0.00205719 -4.44929e-06 68.1168 8171.97 11209.2 
1170 1.4362 1.4362 0 0.00199746 0.00199746 -5.37071e-05 64.4586 8335.39 11671.9 
1210 1.3252 1.3252 0 0.00209046 0.00209046 4.30524e-06 60.2127 8943.53 12604.1 
1250 1.0168 1.0168 0 0.00207016 0.00207016 1.39925e-05 45.6356 8672.3 11812.6 
11 0.4072 0.4072 0 0.00194459 0.00194459 1.71498e-05 189.535 36806.4 48939.5 
51 9.9428 9.9428 0 0.0411534 0.0411534 5.9911e-05 419.947 31031.8 43883 
91 10.475 10.475 0 0.0427922 0.0427922 -1.77821e-05 434.984 27592.1 38868.9 
131 10.6544 10.6544 0 0.0433195 0.0433195 -0.000106079 439.873 25205.6 35713.1 
171 10.5806 10.5806 0 0.043226 0.043226 -3.87894e-05 438.308 26504.3 36737.1 
211 10.2572 10.2572 0 0.041716 0.041716 -2.09332e-05 422.35 24277.1 34549.9 
251 9.7804 9.7804 0 0.040007 0.040007 4.75318e-05 404.285 23678.7 33587.1 
291 8.479 8.479 0 0.0356348 0.0356348 5.05996e-05 357.877 28183.4 39168.8 
331 0.065 0.065 0 0.000116837 0.000116837 1.11151e-05 25.6998 3067.49 5615.62 
371 0.399 0.399 0 0.000295765 0.000295765 -4.95753e-05 16.9446 2726.05 3605.02 
411 0.4408 0.4408 0 0.000207479 0.000207479 -1.23765e-05 19.1469 2985.82 3982.31 
451 0.468 0.468 0 0.000196312 0.000196312 2.73562e-05 20.6247 3370.11 4391.66 
491 0.4982 0.4982 0 0.000117347 0.000117347 -7.11874e-06 22.0623 2948.59 3988.36 
531 0.5114 0.5114 0 0.000123512 0.000123512 -9.59441e-06 22.7505 3386.82 4468 
571 0.5052 0.5052 0 7.83353e-05 7.83353e-05 -1.22138e-05 22.183 3054.24 3930.08 
611 0.4608 0.4608 0 0.000142743 0.000142743 -1.79958e-05 20.3568 2954.9 3942.51 
651 0.0068 0.0068 0 -2.17889e-05 -2.17889e-05 1.57601e-06 2.27842 91.4075 -17.5771 
691 0.1666 0.1666 0 -0.000679843 -0.000679843 4.85555e-06 7.02165 582.334 803.329 
731 0.1992 0.1992 0 -0.000837117 -0.000837117 4.96219e-06 8.52394 720.429 1022.6 
771 0.2256 0.2256 0 -0.000952885 -0.000952885 -6.65512e-06 9.6592 792.675 1060.82 
811 0.2008 0.2008 0 -0.000844945 -0.000844945 1.34261e-05 8.53421 723.084 967.677 
851 0.1638 0.1638 0 -0.000669238 -0.000669238 -3.08542e-05 6.74918 530.942 760.543 
891 0.1176 0.1176 0 -0.000462128 -0.000462128 4.99724e-06 4.67527 382.24 621.235 
931 0.0618 0.0618 0 -0.00022019 -0.00022019 -1.2342e-05 2.29243 217.693 347.413 
971 0.237 0.237 0 0.000543575 0.000543575 9.83031e-06 43.9915 7587.25 10018.7 
1011 1.4772 1.4772 0 0.0019213 0.0019213 9.87401e-07 64.0175 6460.32 9167.42 
1051 1.5838 1.5838 0 0.00198773 0.00198773 8.29921e-06 69.5962 7414.98 10513.2 
1091 1.5724 1.5724 0 0.0020099 0.0020099 1.89329e-05 68.612 7371.8 10292.1 
1131 1.5426 1.5426 0 0.00203859 0.00203859 -4.12499e-05 67.7953 8126.8 11246.5 
1171 1.4424 1.4424 0 0.00206643 0.00206643 1.53024e-05 64.2888 8216.69 11587.5 
1211 1.2942 1.2942 0 0.00208632 0.00208632 -8.53635e-07 58.6669 8979.29 12325.4 
1251 0.9638 0.9638 0 0.00181802 0.00181802 8.77104e-06 43.4157 7542.36 10413.4 
12 0.4708 0.4708 0 0.00217166 0.00217166 4.06491e-06 213.506 38426.3 54384.7 
52 10.0706 10.0706 0 0.0415571 0.0415571 -0.000218869 423.69 30419.8 43141.7 
92 10.5438 10.5438 0 0.043269 0.043269 -0.000109127 440.029 29375.2 41057.2 
132 10.7592 10.7592 0 0.0436939 0.0436939 -3.91073e-05 443.31 24781.7 34995.3 
172 10.5432 10.5432 0 0.0430363 0.0430363 -2.06057e-06 436.143 23563 34072.1 
212 10.2822 10.2822 0 0.0420457 0.0420457 -5.10535e-06 425.536 25483 35186.2 
252 9.8664 9.8664 0 0.0403073 0.0403073 -5.43717e-05 407.415 23941.2 33771.2 
292 8.5188 8.5188 0 0.0357151 0.0357151 1.10965e-05 358.836 27155.9 37873.6 
332 0.0452 0.0452 0 7.63523e-05 7.63523e-05 -1.06191e-05 17.1114 2895.83 4394.21 
372 0.3842 0.3842 0 0.00030362 0.00030362 5.94212e-06 16.4095 2879.39 3663.19 
412 0.4306 0.4306 0 0.000241146 0.000241146 2.85844e-05 18.8365 3174.54 4047 
452 0.457 0.457 0 0.000163186 0.000163186 4.4418e-06 20.1599 2952.25 3786.59 
492 0.4844 0.4844 0 0.000101398 0.000101398 -4.07125e-06 21.3567 3129.43 4038.12 
532 0.5052 0.5052 0 7.10552e-05 7.10552e-05 -1.84673e-05 22.23 2853.87 3759.16 
572 0.494 0.494 0 0.000114206 0.000114206 2.24356e-05 21.7036 2928.53 3917.01 
612 0.4528 0.4528 0 0.00014828 0.00014828 1.83649e-05 19.9159 2816.37 3614.24 
652 0.0226 0.0226 0 -7.54667e-05 -7.54667e-05 1.0236e-06 3.13312 354.475 532.7 
692 0.1614 0.1614 0 -0.000644941 -0.000644941 9.10805e-06 6.63568 488.618 764.605 
732 0.196 0.196 0 -0.000815519 -0.000815519 -3.36411e-05 8.37144 701.325 1104.68 
772 0.2204 0.2204 0 -0.000943981 -0.000943981 3.37802e-07 9.55908 838.107 1190.51 
812 0.1908 0.1908 0 -0.000812497 -0.000812497 9.31606e-06 8.16267 587.095 888.975 