ITEM: TIMESTEP
25000
ITEM: NUMBER OF SURFS
1272
ITEM: BOX BOUNDS oo rr pp
0 0.3
0 0.3
-0.5 0.5
ITEM: SURFS id f_4[1] f_4[2] f_4[3] f_4[4] f_4[5] f_4[6] f_4[7] f_4[8] f_4[9] 
1 0.0536 0.0536 0 0.000112119 0.000112119 -1.99887e-06 20.1595 3608.21 5320.7 
41 8.8522 8.8522 0 0.0373255 0.0373255 -1.8651e-05 372.927 28335.3 39058.2 
81 10.007 10.007 0 0.0413493 0.0413493 6.13988e-05 414.175 25091 35631.9 
121 10.3912 10.3912 0 0.0431231 0.0431231 -6.30268e-05 432.236 27935.1 38897.7 
161 10.6536 10.6536 0 0.0438032 0.0438032 0.000127543 439.55 25728.5 36082.3 
201 10.7578 10.7578 0 0.0442019 0.0442019 -4.13539e-05 443.757 24755.7 35088.6 
241 10.4142 10.4142 0 0.0433358 0.0433358 3.69058e-05 435.531 28182.5 39418.8 
281 9.8298 9.8298 0 0.0412127 0.0412127 7.26306e-05 414.813 30146 42141.3 
321 0.4356 0.4356 0 0.0020661 0.0020661 -1.40229e-06 202.628 33861.9 45119.9 
361 0.8098 0.8098 0 0.0013205 0.0013205 2.75914e-05 35.9352 6375.73 8607.47 
401 0.9968 0.9968 0 0.00122316 0.00122316 3.87939e-05 44.678 6784.88 9296.46 
441 1.0956 1.0956 0 0.0012026 0.0012026 5.17902e-06 48.9444 6688.95 9124.46 
481 1.1772 1.1772 0 0.0011786 0.0011786 -4.29504e-05 52.4145 6587.79 8946.3 
521 1.205 1.205 0 0.00121796 0.00121796 1.09349e-05 53.419 6183.35 8501.92 
561 1.1978 1.1978 0 0.00114992 0.00114992 8.93813e-06 52.3814 5477.93 7768.29 
601 1.1214 1.1214 0 0.00115258 0.00115258 -4.77286e-05 48.3893 5514.99 7574.75 
641 0.032 0.032 0 -1.30459e-06 -1.30459e-06 -5.25271e-07 13.5066 2394.81 3163.56 
681 0.0806 0.0806 0 -0.000303658 -0.000303658 1.24159e-06 3.0441 197.248 354.76 
721 0.1516 0.1516 0 -0.000628991 -0.000628991 1.72616e-05 6.30081 446.665 637.544 
761 0.1914 0.1914 0 -0.000808574 -0.000808574 -1.35478e-05 8.09486 656.233 979.262 
801 0.2088 0.2088 0 -0.000885882 -0.000885882 -2.95646e-06 8.85843 609.103 948.689 
841 0.2174 0.2174 0 -0.000934588 -0.000934588 -2.08506e-05 9.41666 741.117 1048.49 
881 0.1812 0.1812 0 -0.00075382 -0.00075382 -1.33603e-05 7.61404 650.056 869.367 
921 0.1326 0.1326 0 -0.00054275 -0.00054275 1.01838e-05 5.48369 391.263 680.199 
961 0.0118 0.0118 0 -2.57641e-05 -2.57641e-05 9.71622e-07 4.56212 748.218 1059.99 
1001 0.635 0.635 0 0.00039147 0.00039147 -2.10507e-05 28.1556 3704.69 4948.12 
1041 0.6892 0.6892 0 0.000313613 0.000313613 -5.75646e-06 30.2143 3980.76 5312.89 
1081 0.6738 0.6738 0 0.000297358 0.000297358 9.4634e-06 29.5912 4011.08 5383.82 
1121 0.662 0.662 0 0.000352746 0.000352746 -3.84235e-05 29.362 4143.49 5431.12 
1161 0.6124 0.6124 0 0.000370843 0.000370843 1.93747e-05 27.1153 4142.4 5593.42 
1201 0.5704 0.5704 0 0.000434354 0.000434354 -1.49203e-05 25.2534 4019.24 5239.03 
1241 0.4834 0.4834 0 0.000538453 0.000538453 3.1339e-05 20.4843 3673.88 4811.44 
2 0.0694 0.0694 0 0.000173251 0.000173251 -7.09985e-06 27.4246 4463.36 6982.02 
42 8.937 8.937 0 0.0377343 0.0377343 4.61195e-05 377.056 28056.6 39219.3 
82 10.0358 10.0358 0 0.0414629 0.0414629 2.45432e-06 415.403 24937.5 35709 
122 10.4288 10.4288 0 0.0433204 0.0433204 6.41046e-05 434.387 27239.1 38186.8 
162 10.6674 10.6674 0 0.0439075 0.0439075 -7.27118e-05 440.506 25276.4 34897.6 
202 10.6958 10.6958 0 0.0437697 0.0437697 4.39029e-05 439.467 24728.6 34839.8 
242 10.3776 10.3776 0 0.0430918 0.0430918 -0.000249214 433.078 29538.7 40866.2 
282 9.7274 9.7274 0 0.0405299 0.0405299 7.20863e-05 408.094 29076 40828.6 
322 0.3998 0.3998 0 0.00185477 0.00185477 -5.01734e-06 180.044 34703.2 47906.8 
362 0.8068 0.8068 0 0.00133723 0.00133723 -1.86607e-05 36.3601 6597.74 8812.25 
402 0.9892 0.9892 0 0.00127041 0.00127041 -3.30595e-05 44.4029 6833.29 9542.44 
442 1.1224 1.1224 0 0.00124198 0.00124198 -1.15089e-06 50.1941 6965.84 9567.05 
482 1.181 1.181 0 0.00121914 0.00121914 -2.93372e-05 52.1809 6501.57 8949.54 
522 1.1952 1.1952 0 0.00117346 0.00117346 1.06544e-05 51.9636 6142.15 8695.74 
562 1.2142 1.2142 0 0.00126459 0.00126459 -4.48713e-05 53.0521 6127.99 8374.12 
602 1.1332 1.1332 0 0.00116716 0.00116716 -2.69269e-06 48.8578 5692.95 7666.9 
642 0.0268 0.0268 0 -3.1359e-06 -3.1359e-06 5.89748e-06 10.1965 1731.34 2029.18 
682 0.09 0.09 0 -0.000359569 -0.000359569 3.26458e-07 3.58559 260.128 384.328 
722 0.149 0.149 0 -0.000625768 -0.000625768 1.92344e-05 6.24754 566.824 801.567 
762 0.1802 0.1802 0 -0.000774129 -0.000774129 -1.04723e-05 7.73429 597.663 900.914 
802 0.2144 0.2144 0 -0.000917363 -0.000917363 -3.41954e-06 9.20392 743.037 969.974 
842 0.2148 0.2148 0 -0.000911817 -0.000911817 5.04624e-06 9.17355 500.015 748.513 
882 0.1768 0.1768 0 -0.000752082 -0.000752082 8.82785e-06 7.59976 599.797 884.495 
922 0.1204 0.1204 0 -0.000484903 -0.000484903 8.72013e-06 4.89026 395.338 603.127 
962 0.0178 0.0178 0 -2.28884e-05 -2.28884e-05 5.85227e-07 6.41469 1576.23 2040.42 
1002 0.6252 0.6252 0 0.000349869 0.000349869 -1.42973e-05 27.7618 3457.59 4714.93 
1042 0.6892 0.6892 0 0.000324517 0.000324517 1.16916e-05 30.1507 4187.97 5449.72 
1082 0.6824 0.6824 0 0.000348042 0.000348042 -1.02038e-05 30.1773 4029.68 5418.21 
1122 0.6608 0.6608 0 0.000304968 0.000304968 -6.88055e-06 28.9874 3588.28 5105.61 
1162 0.625 0.625 0 0.000397246 0.000397246 1.74475e-05 27.4804 3837.92 5158.6 
1202 0.5638 0.5638 0 0.000424959 0.000424959 1.47042e-05 24.9939 4210.65 5541.88 
1242 0.4882 0.4882 0 0.000485198 0.000485198 1.5287e-05 21.1672 3624.98 4695.34 
3 0.0848 0.0848 0 0.000238066 0.000238066 -8.39484e-06 33.7819 6240.06 8997.71 
43 8.8962 8.8962 0 0.0374928 0.0374928 -3.77646e-05 374.772 28282.3 39644.2 
83 10.0754 10.0754 0 0.0417043 0.0417043 2.02729e-05 417.835 26108.2 36602.2 
123 10.4814 10.4814 0 0.0433618 0.0433618 6.07384e-06 434.762 27441.6 37952.7 
163 10.655 10.655 0 0.0436889 0.0436889 0.000101801 438.432 24070.7 34466.8 
203 10.648 10.648 0 0.0437045 0.0437045 -2.35218e-05 438.65 25090.8 35368.5 
243 10.5 10.5 0 0.0436193 0.0436193 0.000200834 438.479 29279.9 40086 
283 9.7174 9.7174 0 0.0404387 0.0404387 2.10733e-05 407.113 29204.8 41973.5 
323 0.3424 0.3424 0 0.00162022 0.00162022 3.78709e-05 156.545 28768.1 39657.8 
363 0.8224 0.8224 0 0.00128461 0.00128461 3.01614e-05 36.7414 6239.23 8529.19 
403 1.0212 1.0212 0 0.00127991 0.00127991 -2.6333e-05 45.9639 7200.86 9698.51 
443 1.1382 1.1382 0 0.00124702 0.00124702 -1.08268e-05 50.3092 6546.35 8897.3 
483 1.181 1.181 0 0.00117977 0.00117977 -2.35116e-05 52.2851 6403.18 8640.2 
523 1.209 1.209 0 0.00117051 0.00117051 2.36912e-05 53.0453 6280.93 8341.07 
563 1.2156 1.2156 0 0.00123938 0.00123938 -2.14615e-05 53.1457 6118.35 8545.17 
603 1.1144 1.1144 0 0.00122217 0.00122217 2.25582e-05 48.3172 5378.06 7530.48 
643 0.0224 0.0224 0 -1.21371e-05 -1.21371e-05 -9.36987e-07 8.13904 1425.17 1762.78 
683 0.0794 0.0794 0 -0.00030815 -0.00030815 1.01042e-05 3.07657 154.966 301.604 
723 0.1474 0.1474 0 -0.000622045 -0.000622045 -1.2089e-05 6.22822 478.188 662.184 
763 0.1934 0.1934 0 -0.000825161 -0.000825161 -4.56691e-06 8.24784 639.226 945.697 
803 0.2242 0.2242 0 -0.000946593 -0.000946593 -1.16783e-05 9.47589 879.385 1217.83 
843 0.206 0.206 0 -0.000881668 -0.000881668 -8.0228e-06 8.87249 767.234 1055.18 
883 0.1812 0.1812 0 -0.00077365 -0.00077365 4.68223e-06 7.78044 583.988 830.857 
923 0.1248 0.1248 0 -0.000509843 -0.000509843 8.81957e-06 5.15428 422.705 560.609 
963 0.0176 0.0176 0 -2.22169e-05 -2.22169e-05 1.71035e-06 6.94435 1115.77 1663.09 
1003 0.6372 0.6372 0 0.000360165 0.000360165 6.62805e-06 28.2766 3748.62 4937.27 
1043 0.709 0.709 0 0.00032261 0.00032261 4.22101e-05 30.9286 3953.24 5399.12 
1083 0.6796 0.6796 0 0.00032718 0.00032718 -1.34001e-06 29.9959 4071.76 5348.12 
1123 0.672 0.672 0 0.000333329 0.000333329 2.09376e-05 29.6943 4056.08 5446.3 
1163 0.6002 0.6002 0 0.000348539 0.000348539 2.73008e-06 26.6184 3930.97 5262.25 
1203 0.5498 0.5498 0 0.000431805 0.000431805 1.08552e-05 24.1903 3833.52 4869.59 
1243 0.4948 0.4948 0 0.000558702 0.000558702 4.40596e-06 21.0753 3647.58 4843.51 
4 0.1092 0.1092 0 0.000345043 0.000345043 5.39726e-06 43.6912 6832.59 9701.89 
44 9.035 9.035 0 0.038178 0.038178 -6.05058e-05 381.613 27839.1 38974.5 
84 10.0674 10.0674 0 0.0415972 0.0415972 -5.30119e-05 416.827 25375.4 35984.2 
124 10.4612 10.4612 0 0.0431447 0.0431447 -1.56804e-05 432.556 25769.6 35817.7 
164 10.7126 10.7126 0 0.0440082 0.0440082 3.12086e-05 441.664 24895.9 35197.5 
204 10.6604 10.6604 0 0.0436823 0.0436823 -0.00019735 438.725 24560.5 35212.5 
244 10.4126 10.4126 0 0.0432159 0.0432159 -8.92261e-05 434.302 28760.5 40105.6 
284 9.7514 9.7514 0 0.0406647 0.0406647 7.12088e-05 409.522 28394.1 39833.3 
324 0.2882 0.2882 0 0.00129507 0.00129507 -2.43141e-05 127.383 23662.8 32668.5 
364 0.7986 0.7986 0 0.00129231 0.00129231 -1.76569e-05 35.6073 6113.12 8314.22 
404 1.015 1.015 0 0.00125437 0.00125437 -3.63952e-06 45.7135 6990.34 9553.51 
444 1.0994 1.0994 0 0.00126037 0.00126037 -5.39241e-05 48.9706 6404.52 8890.59 
484 1.1518 1.1518 0 0.00118997 0.00118997 1.18971e-05 51.1584 6419.27 9023.35 
524 1.2234 1.2234 0 0.00118219 0.00118219 4.64655e-05 53.399 6262.08 8605.03 
564 1.208 1.208 0 0.00120802 0.00120802 1.23363e-05 52.8486 5677.27 7866.4 
604 1.0938 1.0938 0 0.00118533 0.00118533 4.11757e-05 47.9053 5518.46 7559.22 
644 0.0184 0.0184 0 -1.32315e-05 -1.32315e-05 -1.16438e-06 6.65755 1427.93 1877.44 
684 0.0902 0.0902 0 -0.000360511 -0.000360511 1.97199e-05 3.61413 282.127 455.827 
724 0.1582 0.1582 0 -0.000664649 -0.000664649 6.40847e-06 6.63225 525.372 763.185 
764 0.1834 0.1834 0 -0.00080282 -0.00080282 -8.91385e-06 8.03686 647.681 847.68 
804 0.203 0.203 0 -0.00085422 -0.00085422 -1.0668e-05 8.56082 730.55 1038.84 
844 0.214 0.214 0 -0.000913135 -0.000913135 -8.54697e-06 9.20008 826.39 1231.4 
884 0.1896 0.1896 0 -0.000794044 -0.000794044 -2.03868e-05 8.01131 607.125 838.784 
924 0.117 0.117 0 -0.000480851 -0.000480851 1.37191e-05 4.8584 321.181 470.123 
964 0.0192 0.0192 0 -1.45155e-05 -1.45155e-05 -4.39698e-06 7.58878 1407.91 1974.31 
1004 0.6316 0.6316 0 0.000346974 0.000346974 -1.33725e-05 27.7856 3437.74 4581.76 
1044 0.688 0.688 0 0.000253129 0.000253129 1.73359e-05 30.6065 3589.02 4943.87 
1084 0.6582 0.6582 0 0.000295691 0.000295691 8.85532e-06 28.6294 3648.48 4796.31 
1124 0.6604 0.6604 0 0.000351176 0.000351176 2.85741e-05 29.4664 4370.96 5665.67 
1164 0.6066 0.6066 0 0.000364562 0.000364562 3.23914e-05 26.5018 3798.54 5025.35 
1204 0.556 0.556 0 0.000495168 0.000495168 -6.29005e-06 24.5373 4204 5392.75 
1244 0.4694 0.4694 0 0.000509924 0.000509924 9.70301e-06 20.05 3320.44 4414.38 
5 0.1336 0.1336 0 0.000459954 0.000459954 1.66385e-05 54.5828 10008.2 14783.4 
45 9.0622 9.0622 0 0.0381247 0.0381247 0.000149658 381.159 27584.3 38938.2 
85 10.0182 10.0182 0 0.0415321 0.0415321 -7.37291e-05 416.073 25597.3 36123.5 
125 10.4564 10.4564 0 0.0432331 0.0432331 0.000132294 433.429 26288.3 36987.7 
165 10.679 10.679 0 0.0437529 0.0437529 -1.70995e-06 439.132 24642.6 34751.8 
205 10.7002 10.7002 0 0.0439393 0.0439393 2.44217e-05 441.082 25441.8 36500.9 
245 10.429 10.429 0 0.0431549 0.0431549 -4.28537e-06 433.695 27480.9 38407.8 
285 9.6588 9.6588 0 0.0403942 0.0403942 6.77088e-05 406.674 29376.8 41111.2 
325 0.2388 0.2388 0 0.00104188 0.00104188 7.63971e-06 103.593 17643.7 24450.8 
365 0.822 0.822 0 0.00133073 0.00133073 9.2046e-06 36.9593 6698.7 8845.43 
405 1.0114 1.0114 0 0.00126355 0.00126355 -4.09086e-06 45.2569 6500 9138.8 
445 1.1234 1.1234 0 0.00123456 0.00123456 -1.13277e-05 49.8853 6713.52 9096.53 
485 1.1808 1.1808 0 0.00121484 0.00121484 5.05608e-05 52.1584 6619 9075.62 
525 1.2118 1.2118 0 0.00125258 0.00125258 2.1905e-05 53.0348 6017.15 8383.02 
565 1.191 1.191 0 0.00118992 0.00118992 2.98567e-05 51.9402 5600.96 7931.4 
605 1.0936 1.0936 0 0.00117935 0.00117935 4.56314e-05 48.0995 5482.81 7373.57 
645 0.014 0.014 0 -2.41904e-05 -2.41904e-05 -1.39636e-06 5.08181 636.184 976.824 
685 0.093 0.093 0 -0.000370341 -0.000370341 -3.76856e-06 3.71079 259.737 439.993 
725 0.15 0.15 0 -0.000621565 -0.000621565 -1.67923e-05 6.19392 391.93 582.557 
765 0.2026 0.2026 0 -0.000860478 -0.000860478 1.31046e-05 8.59555 615.575 1008.96 
805 0.2148 0.2148 0 -0.00089943 -0.00089943 -1.40217e-05 9.01506 661.183 990.625 
845 0.2046 0.2046 0 -0.000893244 -0.000893244 -1.74809e-05 8.99997 792.83 1015.7 
885 0.1808 0.1808 0 -0.000758826 -0.000758826 1.02318e-05 7.66375 562.062 920.359 
925 0.1162 0.1162 0 -0.000466353 -0.000466353 -1.13175e-05 4.71198 277.349 509.961 
965 0.0246 0.0246 0 -1.39655e-05 -1.39655e-05 2.50448e-06 10.0183 1577.76 2338.89 
1005 0.625 0.625 0 0.000319183 0.000319183 4.05814e-05 27.532 3587.87 4968.35 
1045 0.6618 0.6618 0 0.000259936 0.000259936 -1.26838e-05 28.8973 3707.43 4938.29 
1085 0.671 0.671 0 0.000322135 0.000322135 4.84594e-05 29.7796 4075.44 5535.03 
1125 0.6484 0.6484 0 0.000384776 0.000384776 -1.39593e-05 28.7484 4053.95 5510.4 
1165 0.6278 0.6278 0 0.000369673 0.000369673 -3.23611e-07 27.7167 4181.8 5568.05 
1205 0.5638 0.5638 0 0.000485549 0.000485549 2.23524e-05 24.995 4030.51 5199.1 
1245 0.481 0.481 0 0.000558468 0.000558468 1.48381e-05 20.4007 3293.73 4456.12 
6 0.1486 0.1486 0 0.000573152 0.000573152 -1.56017e-06 63.0237 12357.5 16586.5 
46 9.1336 9.1336 0 0.0383458 0.0383458 0.000118328 383.56 26958.7 38195 
86 10.0346 10.0346 0 0.04181 0.04181 -2.9e-05 418.854 26806.2 37653.9 
126 10.5552 10.5552 0 0.0433649 0.0433649 -0.000156249 434.936 24909 35614.9 
166 10.64 10.64 0 0.0437587 0.0437587 -7.90948e-05 439.103 25034.9 35239.5 
206 10.7004 10.7004 0 0.0438917 0.0438917 -0.000135526 440.725 26427.4 37105.8 
246 10.3904 10.3904 0 0.0430468 0.0430468 2.40904e-05 432.685 27610.1 38655.7 
286 9.588 9.588 0 0.0401005 0.0401005 9.28304e-05 403.727 29502.6 41453.5 
326 0.1932 0.1932 0 0.000808485 0.000808485 1.52162e-05 83.9374 12869.7 19419.9 
366 0.8182 0.8182 0 0.00130219 0.00130219 2.87326e-06 36.3788 6524.2 8787.53 
406 1.0082 1.0082 0 0.00127046 0.00127046 1.7218e-05 44.848 6776.98 9173.37 
446 1.1134 1.1134 0 0.00122944 0.00122944 4.31441e-05 49.1483 6663.69 9085.13 
486 1.1578 1.1578 0 0.00117085 0.00117085 1.36542e-05 51.3558 6130.5 8517.99 
526 1.2332 1.2332 0 0.00124666 0.00124666 -2.55745e-06 54.561 6175.81 8667.56 
566 1.2092 1.2092 0 0.00123016 0.00123016 8.26727e-06 53.1816 6201.72 8247.43 
606 1.0806 1.0806 0 0.00118635 0.00118635 3.32572e-05 47.1475 5520.89 7597.88 
646 0.011 0.011 0 -1.88064e-05 -1.88064e-05 1.56126e-06 4.08235 759.972 1003.86 
686 0.098 0.098 0 -0.00037891 -0.00037891 -1.32611e-07 3.78825 384.973 512.033 
726 0.1478 0.1478 0 -0.000617147 -0.000617147 -1.2095e-05 6.15308 550.637 845.804 
766 0.1982 0.1982 0 -0.000852019 -0.000852019 -5.36853e-06 8.51383 770.645 1051.3 
806 0.207 0.207 0 -0.000883663 -0.000883663 -3.78399e-06 8.85905 722.627 1007.41 
846 0.219 0.219 0 -0.000937247 -0.000937247 -1.33885e-05 9.42126 771.849 1110.32 
886 0.1696 0.1696 0 -0.000715972 -0.000715972 5.96324e-06 7.22702 663.089 951.631 
926 0.1194 0.1194 0 -0.000474787 -0.000474787 5.23222e-06 4.80234 274.172 415.921 
966 0.0318 0.0318 0 1.62197e-06 1.62197e-06 4.45927e-06 13.3702 2305.72 2908.72 
1006 0.6498 0.6498 0 0.00031333 0.00031333 3.96037e-05 28.5614 3539.2 4932.37 
1046 0.6836 0.6836 0 0.000254436 0.000254436 -3.82593e-05 30.1909 3844.65 5253.14 
1086 0.671 0.671 0 0.000292377 0.000292377 2.48074e-05 29.3158 3815.53 5178.73 
1126 0.66 0.66 0 0.000342629 0.000342629 -2.39759e-05 28.8544 4063.91 5292.55 
1166 0.6264 0.6264 0 0.000381948 0.000381948 4.29471e-06 27.3673 4113.98 5307.38 
1206 0.55 0.55 0 0.000438917 0.000438917 1.22963e-05 24.0103 3924.44 5255.03 
1246 0.4664 0.4664 0 0.000537964 0.000537964 4.65437e-06 20.0269 3486.56 4584.26 
7 0.1832 0.1832 0 0.000764511 0.000764511 -1.36942e-06 81.5826 14140.2 19041.8 
47 9.0672 9.0672 0 0.0381052 0.0381052 -7.83518e-05 381.073 26374 37700.5 
87 10.0042 10.0042 0 0.0415519 0.0415519 -1.61561e-05 416.224 27908.4 38472.7 
127 10.4842 10.4842 0 0.0431569 0.0431569 -3.47814e-05 432.848 24452 33926 
167 10.6648 10.6648 0 0.0437096 0.0437096 2.1604e-06 438.656 24542.1 34769.1 
207 10.6796 10.6796 0 0.0441356 0.0441356 1.28428e-05 443.232 27222.4 38282.4 
247 10.3752 10.3752 0 0.0429867 0.0429867 3.45439e-05 432.027 28313.3 39448.8 
287 9.5598 9.5598 0 0.0399678 0.0399678 -3.2618e-05 402.453 29228.5 41276.8 
327 0.185 0.185 0 0.0007464 0.0007464 -6.28917e-06 79.1099 15940.8 21637.1 
367 0.8474 0.8474 0 0.0013393 0.0013393 5.07494e-06 37.8487 6705.48 8879.96 
407 1.028 1.028 0 0.00129357 0.00129357 3.11137e-05 45.7981 6960.42 9411.34 
447 1.1208 1.1208 0 0.0012531 0.0012531 -1.37858e-06 50.1847 6927.53 9365.79 
487 1.171 1.171 0 0.0012088 0.0012088 -1.47972e-06 51.6546 6483.45 8774.75 
527 1.1804 1.1804 0 0.00123934 0.00123934 -1.6282e-05 51.3543 6132.73 8298.58 
567 1.198 1.198 0 0.00120996 0.00120996 1.3828e-05 51.7874 6055.77 8435.45 
607 1.0948 1.0948 0 0.00124878 0.00124878 1.06093e-05 47.7968 5423.85 7407.51 
647 0.0068 0.0068 0 -1.5484e-05 -1.5484e-05 4.75039e-06 2.53005 338.147 863.689 
687 0.0996 0.0996 0 -0.000390292 -0.000390292 -1.1002e-05 3.90483 297.71 492.62 
727 0.1488 0.1488 0 -0.000628546 -0.000628546 1.02625e-05 6.27541 469.583 654.968 
767 0.191 0.191 0 -0.000807028 -0.000807028 -4.75714e-06 8.07487 679.246 953.253 
807 0.216 0.216 0 -0.000940296 -0.000940296 -2.89406e-06 9.42766 752.243 1010.06 
847 0.2014 0.2014 0 -0.000856206 -0.000856206 -1.45123e-05 8.62423 654.607 924.188 
887 0.1752 0.1752 0 -0.000724305 -0.000724305 2.9344e-06 7.32236 538.541 770.75 
927 0.12 0.12 0 -0.000482517 -0.000482517 -9.84118e-06 4.86822 357.077 579.72 
967 0.0334 0.0334 0 2.15868e-05 2.15868e-05 1.68665e-06 14.8203 3222.21 3868 
1007 0.632 0.632 0 0.000330211 0.000330211 3.40614e-05 27.7958 3615.3 4779.66 
1047 0.6808 0.6808 0 0.000344726 0.000344726 -3.93299e-05 29.8891 3769.46 5007.56 
1087 0.6494 0.6494 0 0.000288413 0.000288413 -7.88497e-06 28.2509 3521.48 4925.53 
1127 0.6694 0.6694 0 0.000372713 0.000372713 -3.43026e-06 29.8459 4078.38 5560.44 
1167 0.6044 0.6044 0 0.000374791 0.000374791 -1.10452e-05 26.28 3976.26 5288.35 
1207 0.5684 0.5684 0 0.000491554 0.000491554 5.11092e-05 24.89 3814.33 4979.41 
1247 0.463 0.463 0 0.000550038 0.000550038 5.80966e-06 19.5439 3317.3 4506.44 
8 0.1998 0.1998 0 0.000811044 0.000811044 -8.41155e-06 84.9556 16119 22187 
48 9.1428 9.1428 0 0.0383344 0.0383344 -8.05226e-05 383.404 26957.2 38349.4 
88 10.0664 10.0664 0 0.0420108 0.0420108 -0.000193453 420.83 27556.5 38138 
128 10.4478 10.4478 0 0.0430029 0.0430029 -4.81107e-05 431.272 25034 35101.1 
168 10.7878 10.7878 0 0.0441339 0.0441339 1.12254e-05 442.947 24836 35067.9 
208 10.6706 10.6706 0 0.0443001 0.0443001 -0.000103391 444.891 27904.8 38898 
248 10.411 10.411 0 0.0429443 0.0429443 -3.56322e-05 431.658 27233.3 38030.4 
288 9.5868 9.5868 0 0.040188 0.040188 -9.13241e-05 404.657 30368.3 42962.5 
328 0.1406 0.1406 0 0.000531791 0.000531791 1.14833e-05 59.4224 10743.4 15702.1 
368 0.8414 0.8414 0 0.00127289 0.00127289 4.51117e-05 37.4735 6920.45 9239.3 
408 1.0276 1.0276 0 0.00126953 0.00126953 -3.38133e-06 45.7106 6338.3 8996.54 
448 1.1326 1.1326 0 0.00122945 0.00122945 1.33672e-05 50.5049 6670.96 9115.29 
488 1.1608 1.1608 0 0.00121029 0.00121029 -3.84973e-06 50.7969 6441.1 8816.9 
528 1.2138 1.2138 0 0.00120987 0.00120987 -4.94656e-05 53.7063 6226.85 8887.41 
568 1.1744 1.1744 0 0.00116449 0.00116449 -1.64415e-05 51.6155 6087.3 8299.46 
608 1.0888 1.0888 0 0.00123549 0.00123549 1.9282e-05 47.5913 5757.66 7862.25 
648 0.0084 0.0084 0 -2.33041e-05 -2.33041e-05 -4.41643e-06 2.96003 -16.1843 45.2708 
688 0.1002 0.1002 0 -0.000379689 -0.000379689 2.01352e-05 3.8002 279.926 504.778 
728 0.1562 0.1562 0 -0.000647685 -0.000647685 -2.35182e-06 6.46261 507.247 716.76 
768 0.1904 0.1904 0 -0.000803239 -0.000803239 1.02957e-05 8.03502 660.245 933.38 
808 0.2162 0.2162 0 -0.000933745 -0.000933745 -4.46518e-06 9.36949 794.812 1150.5 
848 0.2026 0.2026 0 -0.000869113 -0.000869113 -2.3114e-05 8.73205 707.055 956.528 
888 0.1704 0.1704 0 -0.000690719 -0.000690719 -1.31048e-05 6.97343 659.914 946.791 
928 0.1176 0.1176 0 -0.000476143 -0.000476143 -5.65138e-06 4.8131 321.504 509.301 
968 0.0384 0.0384 0 3.24296e-05 3.24296e-05 8.09079e-06 17.8233 3755.13 4660.71 
1008 0.6204 0.6204 0 0.00029509 0.00029509 2.4784e-05 27.2822 3355.68 4534.43 
1048 0.6734 0.6734 0 0.000290121 0.000290121 6.90451e-06 29.4048 3713.31 5162.27 
1088 0.6806 0.6806 0 0.000336473 0.000336473 1.66727e-05 29.9123 3920.69 5188.19 
1128 0.6552 0.6552 0 0.000386719 0.000386719 -6.25354e-06 29.0712 4151.73 5575.78 
1168 0.6252 0.6252 0 0.000358288 0.000358288 -2.05191e-05 27.6199 4020.87 5200.63 
1208 0.5388 0.5388 0 0.000495166 0.000495166 1.22549e-05 23.5702 3845.1 5087.62 
1248 0.4564 0.4564 0 0.000557622 0.000557622 4.87521e-06 19.3263 3323.48 4527.27 
9 0.2462 0.2462 0 0.00106755 0.00106755 1.51689e-05 109.233 18888.3 25027.9 
49 9.1722 9.1722 0 0.0384579 0.0384579 1.19481e-06 384.708 26433.1 37738.7 
89 10.0594 10.0594 0 0.0418681 0.0418681 5.28367e-05 419.349 27007.1 37730 
129 10.5644 10.5644 0 0.043567 0.043567 3.81405e-05 436.778 24599.6 34777.4 
169 10.7238 10.7238 0 0.0440459 0.0440459 0.00011867 442.049 24089.4 34751.8 
209 10.5334 10.5334 0 0.043522 0.043522 -9.03398e-05 437.091 26537.8 36899.6 
249 10.4918 10.4918 0 0.0431498 0.0431498 -1.00701e-05 433.773 27322.9 38184.6 
289 9.4844 9.4844 0 0.0397702 0.0397702 2.36755e-06 400.497 29116.9 42064.2 
329 0.1186 0.1186 0 0.000445027 0.000445027 2.15373e-06 52.143 10384.3 14892.1 
369 0.8324 0.8324 0 0.00129585 0.00129585 4.05967e-05 37.1513 6335.34 8484.18 
409 1.0338 1.0338 0 0.00130305 0.00130305 -5.99694e-05 46.6733 7379.92 9835.15 
449 1.0998 1.0998 0 0.00116221 0.00116221 4.22198e-05 47.935 6047.25 8417.28 
489 1.1802 1.1802 0 0.00120367 0.00120367 -1.39843e-06 52.2028 6501.62 8880.5 
529 1.1842 1.1842 0 0.00118086 0.00118086 6.11289e-05 51.823 5777.14 8320 
569 1.1868 1.1868 0 0.00119164 0.00119164 2.45639e-05 51.6196 6080.58 8223.53 
609 1.09 1.09 0 0.00121544 0.00121544 -3.8516e-05 47.5323 5781.73 8087.46 
649 0.0068 0.0068 0 -2.00281e-05 -2.00281e-05 2.1174e-06 2.41652 176.354 336.902 
689 0.0932 0.0932 0 -0.000379632 -0.000379632 -4.06699e-06 3.79 357.405 487.127 
729 0.1554 0.1554 0 -0.000661063 -0.000661063 -4.43793e-06 6.60583 605.434 851.052 
769 0.1952 0.1952 0 -0.000829584 -0.000829584 -1.66873e-05 8.27931 740.053 1018.21 
809 0.215 0.215 0 -0.00093825 -0.00093825 -1.61438e-05 9.38804 681.186 1031.63 
849 0.2094 0.2094 0 -0.000910643 -0.000910643 1.41162e-05 9.16073 815.214 1155.6 
889 0.1852 0.1852 0 -0.000759723 -0.000759723 -1.44651e-06 7.66462 652.174 984.87 
929 0.1116 0.1116 0 -0.00045085 -0.00045085 1.11797e-06 4.54798 384.988 634.228 
969 0.0402 0.0402 0 5.9899e-05 5.9899e-05 8.18498e-06 18.5704 3529.32 4351.31 
1009 0.6464 0.6464 0 0.000280996 0.000280996 -3.23539e-06 28.1154 3547.87 4610.76 
1049 0.6762 0.6762 0 0.000267913 0.000267913 5.31635e-05 29.6695 3830.16 5121.35 
1089 0.6842 0.6842 0 0.000306644 0.000306644 2.476e-05 30.2362 4140.6 5436.55 
1129 0.6486 0.6486 0 0.000331718 0.000331718 -3.26371e-05 28.764 3901.16 5151.16 
1169 0.6066 0.6066 0 0.000383156 0.000383156 -4.18051e-05 26.7819 3953.93 5396.95 
1209 0.5336 0.5336 0 0.000480241 0.000480241 -5.50082e-05 23.4173 4059.55 5253.27 
1249 0.45 0.45 0 0.000550485 0.000550485 -9.59659e-06 19.0604 3314.11 4404.19 
10 0.2638 0.2638 0 0.00117373 0.00117373 1.88773e-06 119.512 19718.7 27776.7 
50 9.1398 9.1398 0 0.0383326 0.0383326 -0.000122695 383.413 27372.5 38318.8 
90 10.07 10.07 0 0.0418362 0.0418362 2.49187e-05 419.046 26211.7 36812.3 
130 10.522 10.522 0 0.0430304 0.0430304 0.000109406 431.545 24521.3 35313 
170 10.6924 10.6924 0 0.0439465 0.0439465 -0.000102087 440.897 25353 35324.9 
210 10.6338 10.6338 0 0.0437279 0.0437279 -0.000197975 439.114 26364.8 37409.3 
250 10.3942 10.3942 0 0.0429141 0.0429141 0.000128184 431.307 26740.4 37117.5 
290 9.4204 9.4204 0 0.0396134 0.0396134 -6.49938e-06 398.974 30448.9 43126.1 
330 0.1024 0.1024 0 0.000324191 0.000324191 -1.5209e-05 42.9917 7581.41 11298.3 
370 0.8462 0.8462 0 0.00128282 0.00128282 1.63862e-05 37.9391 6168.88 8331.09 
410 1.0334 1.0334 0 0.00125075 0.00125075 -7.52397e-06 46.1907 7162.5 9687.1 
450 1.1314 1.1314 0 0.00127096 0.00127096 1.30079e-05 49.933 6705.02 9275.98 
490 1.1864 1.1864 0 0.00127268 0.00127268 2.18295e-05 52.7065 7032.56 9623.22 
530 1.193 1.193 0 0.00107975 0.00107975 -1.48058e-05 52.102 5838.16 8144.5 
570 1.1442 1.1442 0 0.0011202 0.0011202 -1.3968e-05 50.1661 5672.46 7689.91 
610 1.0966 1.0966 0 0.00121234 0.00121234 2.15401e-05 47.707 5628.17 7678.23 
650 0.0052 0.0052 0 -1.58808e-05 -1.58808e-05 -2.59844e-06 1.82274 106.375 220.426 
690 0.1074 0.1074 0 -0.000429987 -0.000429987 -1.90999e-05 4.30348 302.601 487.752 
730 0.1538 0.1538 0 -0.000648942 -0.000648942 -1.0569e-05 6.46369 495.45 752.287 
770 0.1912 0.1912 0 -0.000813613 -0.000813613 1.31352e-05 8.13094 559.088 840.139 
810 0.2046 0.2046 0 -0.000862484 -0.000862484 1.40293e-05 8.65535 626.087 933.598 
850 0.214 0.214 0 -0.000903607 -0.000903607 -7.96172e-06 9.09796 768.189 1085.84 
890 0.17 0.17 0 -0.000713361 -0.000713361 2.27342e-05 7.20919 605.334 873.294 
930 0.1146 0.1146 0 -0.000451045 -0.000451045 3.21948e-06 4.55172 258.015 530.929 
970 0.1168 0.1168 0 0.000148806 0.000148806 -1.08315e-05 21.4011 3604.15 4755.77 
1010 0.6378 0.6378 0 0.000326383 0.000326383 -2.28377e-06 27.802 3707.75 4882.94 
1050 0.676 0.676 0 0.000253891 0.000253891 1.51704e-05 29.6589 3461.48 4696.27 
1090 0.6748 0.6748 0 0.000306094 0.000306094 -9.18843e-06 29.7933 3950.44 5316.59 
1130 0.6508 0.6508 0 0.000331234 0.000331234 -5.76022e-06 28.8679 4092 5449.75 
1170 0.6122 0.6122 0 0.000378651 0.000378651 -3.81901e-05 27.0953 4150.71 5487.87 
1210 0.5524 0.5524 0 0.000427604 0.000427604 -3.97075e-06 24.3015 3770.32 4986.57 
1250 0.4516 0.4516 0 0.000532352 0.000532352 -1.97013e-05 18.8664 3239.26 4408.14 
11 0.2986 0.2986 0 0.00131704 0.00131704 -1.48987e-05 130.639 18947.7 26816.2 
51 9.2474 9.2474 0 0.0387637 0.0387637 0.000153067 387.739 27324.5 38708.4 
91 10.18 10.18 0 0.0422145 0.0422145 -1.7919e-05 423.057 26542.1 36956.3 
131 10.5736 10.5736 0 0.0433422 0.0433422 -3.7069e-05 434.678 23655.1 33598.4 
171 10.746 10.746 0 0.0441393 0.0441393 6.12069e-05 443.013 25456.7 35887.2 
211 10.57 10.57 0 0.0435591 0.0435591 1.22079e-05 437.465 26096.7 36495.1 
251 10.411 10.411 0 0.0428392 0.0428392 -2.21801e-05 430.564 27405.2 38434.5 
291 9.44 9.44 0 0.0397051 0.0397051 -4.28135e-05 400.009 31425.6 44320.1 
331 0.0812 0.0812 0 0.000249843 0.000249843 -1.27416e-05 33.5903 6737.01 9486.81 
371 0.8502 0.8502 0 0.00130527 0.00130527 -3.37511e-05 37.9611 6642.66 8704.78 
411 1.0212 1.0212 0 0.00125976 0.00125976 6.53494e-05 45.8748 6421.44 8828.67 
451 1.0916 1.0916 0 0.00116887 0.00116887 3.74943e-05 48.7094 6388.11 8875.79 
491 1.1992 1.1992 0 0.00122459 0.00122459 -3.26254e-05 52.5177 6276.82 8747.8 
531 1.2532 1.2532 0 0.00121111 0.00121111 6.40328e-05 54.4562 6205.05 8442.52 
571 1.1682 1.1682 0 0.00109952 0.00109952 1.02736e-05 51.09 5497.67 7862.34 
611 1.0774 1.0774 0 0.00122374 0.00122374 2.89033e-05 46.9488 5684.61 7588.52 
651 0.0042 0.0042 0 -1.53912e-05 -1.53912e-05 4.46537e-06 1.59618 106.308 117.058 
691 0.1028 0.1028 0 -0.000402831 -0.000402831 -1.18372e-06 4.03989 360.823 531.524 
731 0.156 0.156 0 -0.000649268 -0.000649268 6.17165e-06 6.48892 490.199 711.4 
771 0.1804 0.1804 0 -0.000760992 -0.000760992 2.1055e-05 7.60518 640.099 963.141 
811 0.2242 0.2242 0 -0.000960005 -0.000960005 -5.27876e-06 9.61684 742.746 1139.69 
851 0.2108 0.2108 0 -0.000893498 -0.000893498 5.76492e-06 8.96587 633.885 991.752 
891 0.1666 0.1666 0 -0.000695967 -0.000695967 -8.42392e-06 7.03575 581.289 835.555 
931 0.1102 0.1102 0 -0.000438828 -0.000438828 -8.55148e-06 4.44523 314.951 513.968 
971 0.124 0.124 0 0.000139446 0.000139446 -3.84396e-06 22.4182 3685.65 4581.32 
1011 0.6466 0.6466 0 0.000305062 0.000305062 3.0533e-05 28.5647 3893.92 5080.15 
1051 0.6776 0.6776 0 0.00027125 0.00027125 -1.24663e-05 29.6664 3571.61 5005.86 
1091 0.674 0.674 0 0.000359069 0.000359069 3.01158e-05 29.6839 4088.43 5454.84 
1131 0.636 0.636 0 0.000310731 0.000310731 -2.16038e-05 28.2243 3939.45 5335.49 
1171 0.6158 0.6158 0 0.000394275 0.000394275 -2.11713e-05 27.2347 4306.48 5625.92 
1211 0.5384 0.5384 0 0.000441411 0.000441411 3.85082e-05 23.7556 4019.26 5333.47 
1251 0.4602 0.4602 0 0.000587289 0.000587289 -7.59914e-06 19.184 3376.67 4478.42 
12 0.3776 0.3776 0 0.00169962 0.00169962 -7.74201e-06 166.001 26741 35653.4 
52 9.2704 9.2704 0 0.0389967 0.0389967 2.42912e-07 390.037 27685.8 39015.6 
92 10.1114 10.1114 0 0.0418734 0.0418734 7.96984e-05 419.519 26285.4 36743 
132 10.6508 10.6508 0 0.0436246 0.0436246 3.00918e-05 437.663 23967.5 34291.2 
172 10.6044 10.6044 0 0.0437636 0.0437636 0.00010183 439.252 25684 36022.1 
212 10.6772 10.6772 0 0.0439641 0.0439641 0.000132827 441.624 26358 36802.5 
252 10.4002 10.4002 0 0.0429125 0.0429125 1.4717e-05 431.352 26624.2 37609.9 
292 9.3864 9.3864 0 0.0395019 0.0395019 0.000108073 398.092 31985.6 45576.3 
332 0.0772 0.0772 0 0.000211682 0.000211682 -2.2411e-06 30.7828 5238.26 8557.26 
372 0.8496 0.8496 0 0.00133357 0.00133357 -1.55534e-07 38.0845 6297.33 8655.1 
412 1.045 1.045 0 0.00134688 0.00134688 -4.72919e-07 47.1575 7229.64 9693.78 
452 1.1406 1.1406 0 0.00121903 0.00121903 2.72719e-06 50.9655 6685.35 9303.84 
492 1.1742 1.1742 0 0.00125692 0.00125692 7.89361e-06 51.8329 6335.34 8907.04 
532 1.2174 1.2174 0 0.00124124 0.00124124 3.87457e-05 53.1416 6189.12 8356.27 
572 1.1876 1.1876 0 0.00114671 0.00114671 -3.82359e-06 51.5228 5872.69 8150.15 
612 1.041 1.041 0 0.00124515 0.00124515 -1.63523e-05 45.3555 5400.06 7449.94 
652 0.013 0.013 0 -4.27601e-05 -4.27601e-05 -8.39947e-07 1.74587 70.8839 213.823 
692 0.1048 0.1048 0 -0.00042063 -0.00042063 1.78673e-06 4.20605 342.944 496.128 
732 0.1498 0.1498 0 -0.000625602 -0.000625602 -1.48963e-05 6.24053 499.088 734.836 
772 0.203 0.203 0 -0.000852638 -0.000852638 2.1047e-05 8.5285 577.155 880.52 
812 0.21 0.21 0 -0.000885656 -0.000885656 -5.67875e-07 8.89906 661.621 915.397 