ITEM: TIMESTEP
25000
ITEM: NUMBER OF SURFS
1272
ITEM: BOX BOUNDS oo rr pp
0 0.3
0 0.3
-0.5 0.5
ITEM: SURFS id f_4[1] f_4[2] f_4[3] f_4[4] f_4[5] f_4[6] f_4[7] f_4[8] f_4[9] 
1 0.0328 0.0328 0 6.45203e-06 6.45203e-06 -4.41332e-06 11.6885 1209.95 2026.64 
41 7.3186 7.3186 0 0.0274862 0.0274862 -4.81501e-05 304.455 20646.3 28936.9 
81 8.41 8.41 0 0.0309544 0.0309544 4.98755e-05 348.304 22198 30776.5 
121 9.2728 9.2728 0 0.0337085 0.0337085 4.02182e-05 381.537 21243.7 29783.9 
161 9.6658 9.6658 0 0.0349225 0.0349225 2.99482e-05 397.709 22032.4 31344.5 
201 10.0104 10.0104 0 0.0366213 0.0366213 3.01966e-05 417.646 27561.7 38356.6 
241 10.282 10.282 0 0.0375831 0.0375831 -3.92528e-05 430.51 27848.8 39064 
281 10.4402 10.4402 0 0.0385841 0.0385841 -3.81404e-05 445.239 36195.3 51254 
321 0.6678 0.6678 0 0.00318676 0.00318676 2.58503e-05 342.662 80294 110174 
361 3.7488 3.7488 0 0.0101853 0.0101853 4.74146e-05 171.477 25884.3 36363.1 
401 4.2028 4.2028 0 0.0105258 0.0105258 0.000107675 184.626 19837.9 28731.8 
441 4.2384 4.2384 0 0.0103096 0.0103096 9.77647e-05 182.867 17593.3 25019.4 
481 4.2836 4.2836 0 0.0101786 0.0101786 0.000109058 182.281 15133.9 21443 
521 4.2584 4.2584 0 0.00990351 0.00990351 -4.71924e-05 179.152 14066.9 20092.3 
561 4.1324 4.1324 0 0.00980011 0.00980011 2.93685e-05 173.597 13329.1 18663 
601 3.7366 3.7366 0 0.00902379 0.00902379 9.68297e-05 157.169 12271.1 17614.9 
641 0.105 0.105 0 0.000185984 0.000185984 -3.72491e-06 42.1496 6412.29 8209.98 
681 0.0582 0.0582 0 -0.000121106 -0.000121106 -7.31317e-07 2.04418 302.561 356.592 
721 0.0668 0.0668 0 -0.000171749 -0.000171749 1.48529e-05 2.47625 338.596 435.417 
761 0.1068 0.1068 0 -0.000324297 -0.000324297 1.06006e-05 4.18452 432.075 582.745 
801 0.1468 0.1468 0 -0.000505787 -0.000505787 7.08444e-06 5.93277 592.592 836.584 
841 0.1918 0.1918 0 -0.000706532 -0.000706532 -1.08362e-06 8.08545 599.259 784.561 
881 0.219 0.219 0 -0.000824502 -0.000824502 1.2907e-05 9.41018 668.957 901.882 
921 0.2186 0.2186 0 -0.000799369 -0.000799369 -5.72246e-06 9.3399 842.997 1203.42 
961 0.0128 0.0128 0 -5.25871e-05 -5.25871e-05 -9.76759e-07 5.58473 623.306 1038.77 
1001 0.2046 0.2046 0 -0.000272705 -0.000272705 1.5206e-05 8.67326 954.774 1320.62 
1041 0.1762 0.1762 0 -0.000176237 -0.000176237 2.97904e-06 7.56957 1085.88 1367.48 
1081 0.1808 0.1808 0 -0.000147881 -0.000147881 6.19563e-06 7.53274 1072.49 1294.4 
1121 0.171 0.171 0 -0.000110458 -0.000110458 1.08089e-06 7.09038 1171.44 1371.56 
1161 0.174 0.174 0 -9.37899e-05 -9.37899e-05 1.70513e-06 7.14396 1212.56 1466.63 
1201 0.1652 0.1652 0 -8.83986e-05 -8.83986e-05 -2.5827e-06 6.70334 1109.14 1294.95 
1241 0.179 0.179 0 -3.88782e-05 -3.88782e-05 5.80627e-06 6.71886 1027.87 1360.42 
2 0.0406 0.0406 0 3.56076e-05 3.56076e-05 -6.01918e-06 14.6317 2059.13 2741.92 
42 7.2066 7.2066 0 0.0273866 0.0273866 4.44092e-05 303.399 21719.4 29695 
82 8.5998 8.5998 0 0.0312917 0.0312917 8.43991e-05 352.387 19547.8 27837.8 
122 9.313 9.313 0 0.033589 0.033589 0.000140376 380.255 20664.6 29850.8 
162 9.722 9.722 0 0.0352834 0.0352834 -1.657e-05 401.749 24618.3 33883.5 
202 10.1412 10.1412 0 0.0366186 0.0366186 -5.90813e-05 417.805 24044.2 34270.9 
242 10.4048 10.4048 0 0.0379436 0.0379436 3.18226e-05 433.342 28525.2 40769.9 
282 10.3584 10.3584 0 0.0387067 0.0387067 6.43822e-05 447.028 40126.2 55866.4 
322 0.6318 0.6318 0 0.00313294 0.00313294 -7.4862e-06 325.887 81215.9 114110 
362 3.7592 3.7592 0 0.0100947 0.0100947 -4.22734e-05 171.849 24762 35259.7 
402 4.2488 4.2488 0 0.0108307 0.0108307 4.01927e-05 187.527 21270.8 29560.6 
442 4.269 4.269 0 0.0102796 0.0102796 -4.18609e-05 182.804 16570.6 24019 
482 4.3222 4.3222 0 0.0101274 0.0101274 7.05497e-05 182.722 14748.7 21162.6 
522 4.249 4.249 0 0.010011 0.010011 6.07272e-05 179.545 14050.5 20039.9 
562 4.0818 4.0818 0 0.00957548 0.00957548 0.000107745 170.709 12746 17920.2 
602 3.6804 3.6804 0 0.00898105 0.00898105 -9.36632e-05 155.619 12267.7 17226.6 
642 0.0786 0.0786 0 0.000107148 0.000107148 1.016e-05 31.6499 4121.53 5239.76 
682 0.064 0.064 0 -0.000129974 -0.000129974 5.58589e-06 2.25001 243.774 368.609 
722 0.07 0.07 0 -0.000186893 -0.000186893 -1.59342e-06 2.60282 326.82 430.983 
762 0.1046 0.1046 0 -0.000317495 -0.000317495 -1.48468e-05 4.09041 372.822 488.702 
802 0.152 0.152 0 -0.000540223 -0.000540223 1.31264e-06 6.33237 437.802 585.529 
842 0.192 0.192 0 -0.000701582 -0.000701582 -1.15756e-05 8.09329 602.62 918.574 
882 0.237 0.237 0 -0.00088278 -0.00088278 -1.47765e-05 10.1424 752.705 1073.42 
922 0.2228 0.2228 0 -0.000806989 -0.000806989 -5.86362e-06 9.49763 861.515 1279.73 
962 0.0174 0.0174 0 -7.03807e-05 -7.03807e-05 1.73961e-07 7.37808 960.424 1320.82 
1002 0.1928 0.1928 0 -0.000254551 -0.000254551 -5.54602e-06 8.24259 908.435 1240.3 
1042 0.18 0.18 0 -0.000168198 -0.000168198 6.89511e-06 7.59066 1056.56 1331.65 
1082 0.1704 0.1704 0 -0.000147769 -0.000147769 8.46064e-06 7.09553 1026.47 1304.13 
1122 0.1636 0.1636 0 -9.7487e-05 -9.7487e-05 -1.9731e-05 6.73648 1104.96 1375.66 
1162 0.1714 0.1714 0 -9.50361e-05 -9.50361e-05 8.53689e-06 6.95648 1059.25 1312.14 
1202 0.1724 0.1724 0 -8.37089e-05 -8.37089e-05 -1.45e-05 7.00576 1095.48 1415.29 
1242 0.181 0.181 0 -4.46298e-05 -4.46298e-05 6.95995e-06 6.82281 1111.14 1427.36 
3 0.0522 0.0522 0 5.21974e-05 5.21974e-05 3.85701e-06 19.3966 2073.96 3044.42 
43 7.3058 7.3058 0 0.027452 0.027452 -0.000136193 304.531 20477.8 28741.2 
83 8.684 8.684 0 0.0318104 0.0318104 -0.000199698 358.75 21612.2 30401.1 
123 9.142 9.142 0 0.0334651 0.0334651 2.88337e-05 379.216 23973.2 33157 
163 9.6756 9.6756 0 0.0349689 0.0349689 -5.9858e-05 398.424 21910.9 31168.2 
203 10.0796 10.0796 0 0.0364936 0.0364936 7.27245e-05 415.689 23998.5 34302.4 
243 10.3548 10.3548 0 0.0380987 0.0380987 -0.000159143 436.606 32137.1 43924.9 
283 10.3272 10.3272 0 0.0379824 0.0379824 2.40806e-06 439.57 35605.7 50166.6 
323 0.59 0.59 0 0.00299604 0.00299604 4.40246e-06 304.175 71486.3 100974 
363 3.7896 3.7896 0 0.0103768 0.0103768 9.20483e-05 174.707 26620.4 37238.7 
403 4.1578 4.1578 0 0.0104919 0.0104919 -0.000129499 182.56 20395.6 28794.4 
443 4.3212 4.3212 0 0.0103709 0.0103709 -6.22076e-05 185.673 16825.9 24225 
483 4.3412 4.3412 0 0.0104201 0.0104201 -0.00010505 184.315 16157 22583.6 
523 4.2182 4.2182 0 0.00984619 0.00984619 2.66491e-05 177.289 13470 18988.4 
563 4.149 4.149 0 0.00972888 0.00972888 2.9083e-05 174.936 12794.1 18117.4 
603 3.7616 3.7616 0 0.0092014 0.0092014 -1.4117e-05 158.323 12256.8 17183.1 
643 0.069 0.069 0 7.19372e-05 7.19372e-05 -3.22941e-06 27.1011 4171.65 5364.51 
683 0.0594 0.0594 0 -0.000126744 -0.000126744 -1.67061e-06 2.13605 289.325 411.79 
723 0.0706 0.0706 0 -0.000177858 -0.000177858 6.44809e-06 2.65799 330.445 456.485 
763 0.1116 0.1116 0 -0.000356269 -0.000356269 2.06622e-05 4.49613 366.715 469.745 
803 0.159 0.159 0 -0.000567847 -0.000567847 1.46375e-05 6.55103 571.744 804.03 
843 0.2018 0.2018 0 -0.000735848 -0.000735848 -2.07206e-05 8.47347 574.094 790.839 
883 0.2166 0.2166 0 -0.00080971 -0.00080971 -2.40549e-06 9.17095 653.79 903.987 
923 0.217 0.217 0 -0.00080235 -0.00080235 -4.68257e-07 9.32284 567.924 875.756 
963 0.016 0.016 0 -6.32557e-05 -6.32557e-05 -1.2362e-06 6.99107 510.654 808.952 
1003 0.1976 0.1976 0 -0.000248788 -0.000248788 -1.0413e-05 8.40791 1105.79 1372.29 
1043 0.1788 0.1788 0 -0.000149236 -0.000149236 -2.05545e-06 7.35922 1268.06 1491.18 
1083 0.1674 0.1674 0 -0.00014506 -0.00014506 -3.86308e-07 7.06439 1070.4 1326.93 
1123 0.1602 0.1602 0 -0.000105513 -0.000105513 9.28595e-06 6.70954 1109.98 1267.93 
1163 0.1802 0.1802 0 -0.000105863 -0.000105863 -1.26484e-05 7.37114 1189.99 1436.75 
1203 0.1714 0.1714 0 -5.89973e-05 -5.89973e-05 1.29403e-05 6.74329 1147.72 1456.19 
1243 0.1966 0.1966 0 -7.03086e-05 -7.03086e-05 -9.52353e-06 7.49743 1155.5 1468.05 
4 0.0658 0.0658 0 0.000108812 0.000108812 2.33806e-06 23.1406 3081.92 4497.49 
44 7.42 7.42 0 0.0276656 0.0276656 1.03264e-05 308.156 20114.9 28168.5 
84 8.584 8.584 0 0.0315802 0.0315802 9.23092e-05 356.092 21841.1 30287.3 
124 9.3952 9.3952 0 0.0341433 0.0341433 1.0009e-05 386.337 22177.5 30779.3 
164 9.7976 9.7976 0 0.0354302 0.0354302 5.42146e-05 403.929 21758.2 31589.4 
204 10.0756 10.0756 0 0.0368169 0.0368169 5.2462e-05 420.345 27482.2 38377.3 
244 10.3642 10.3642 0 0.0376433 0.0376433 3.1075e-05 431.507 28924.1 40755.8 
284 10.4498 10.4498 0 0.038587 0.038587 6.91696e-05 445.688 37468.4 52786.6 
324 0.5134 0.5134 0 0.00263675 0.00263675 1.34333e-05 263.621 62833 85757.3 
364 3.8472 3.8472 0 0.0104336 0.0104336 -1.50501e-05 174.988 24830.1 34583 
404 4.1228 4.1228 0 0.0103653 0.0103653 1.02841e-05 181.913 19376.9 27909 
444 4.3194 4.3194 0 0.0105432 0.0105432 3.82742e-05 186.604 18025.1 25373.3 
484 4.2468 4.2468 0 0.0102032 0.0102032 -9.68285e-05 180.941 14431.6 20540.2 
524 4.2446 4.2446 0 0.00993758 0.00993758 5.50649e-06 179.316 13747.2 19614.7 
564 4.0632 4.0632 0 0.00968993 0.00968993 1.85631e-05 172.082 13286.3 18532.9 
604 3.6936 3.6936 0 0.0089603 0.0089603 -2.21649e-06 155.386 12034.8 16811.7 
644 0.0574 0.0574 0 2.84268e-05 2.84268e-05 -2.33802e-06 21.9757 2568.32 3641.57 
684 0.054 0.054 0 -0.000106946 -0.000106946 2.41378e-06 1.86856 248.787 346.21 
724 0.0678 0.0678 0 -0.000164378 -0.000164378 -5.1963e-06 2.50771 267.777 385.897 
764 0.108 0.108 0 -0.000347931 -0.000347931 5.03461e-06 4.36686 406.204 547.624 
804 0.1504 0.1504 0 -0.000522568 -0.000522568 -2.01029e-05 6.21725 615.19 905.74 
844 0.1932 0.1932 0 -0.000717908 -0.000717908 -9.84173e-06 8.25436 578.082 882.208 
884 0.2244 0.2244 0 -0.00082355 -0.00082355 7.16324e-06 9.58313 703.156 1113.78 
924 0.2216 0.2216 0 -0.000823477 -0.000823477 2.29971e-06 9.5876 805.651 1168.19 
964 0.0152 0.0152 0 -4.78437e-05 -4.78437e-05 -4.41063e-06 6.08122 693.787 1206.98 
1004 0.1896 0.1896 0 -0.000224059 -0.000224059 1.02941e-05 8.1066 1023.95 1308.92 
1044 0.1766 0.1766 0 -0.00018539 -0.00018539 4.29996e-06 7.38572 1140.27 1455.33 
1084 0.1616 0.1616 0 -0.000137345 -0.000137345 -7.59284e-06 6.6733 957.918 1165.36 
1124 0.1688 0.1688 0 -0.000111409 -0.000111409 1.26852e-05 6.95732 1086 1376.5 
1164 0.1736 0.1736 0 -0.00010568 -0.00010568 1.24954e-05 7.01544 1108.8 1406.41 
1204 0.1688 0.1688 0 -8.6568e-05 -8.6568e-05 -1.98221e-05 6.77429 1107.66 1434.79 
1244 0.1688 0.1688 0 -4.92736e-05 -4.92736e-05 2.64945e-06 6.44068 951.697 1230.74 
5 0.0818 0.0818 0 0.000151884 0.000151884 6.41489e-06 31.4955 4116.02 5189.36 
45 7.4398 7.4398 0 0.027919 0.027919 -5.21943e-05 309.787 22196.2 30386.4 
85 8.5832 8.5832 0 0.0314189 0.0314189 0.000108619 353.856 21114.4 29166.8 
125 9.3212 9.3212 0 0.0336773 0.0336773 0.000128373 382.702 20496.6 29394.7 
165 9.6988 9.6988 0 0.0353137 0.0353137 4.01848e-05 401.468 24618.6 34171.8 
205 10.076 10.076 0 0.0364985 0.0364985 5.87558e-05 416.686 24495 34377.2 
245 10.4858 10.4858 0 0.0381258 0.0381258 -3.0239e-06 437.207 27872.1 39959.8 
285 10.431 10.431 0 0.0387112 0.0387112 -8.99461e-05 447.502 40070.6 56624.5 
325 0.4852 0.4852 0 0.00244688 0.00244688 -1.0682e-05 242.883 58377.5 83087.9 
365 3.8402 3.8402 0 0.0101828 0.0101828 -9.62287e-06 173.727 24163.4 34521 
405 4.3188 4.3188 0 0.0109299 0.0109299 1.70621e-05 190.116 21280.3 29744.1 
445 4.3496 4.3496 0 0.0106038 0.0106038 -1.65298e-05 185.634 16511.2 23406.2 
485 4.2848 4.2848 0 0.0101733 0.0101733 -2.65025e-05 182.378 14773 21326.1 
525 4.2886 4.2886 0 0.0101417 0.0101417 -3.36891e-05 181.713 14031.1 19725.1 
565 4.0996 4.0996 0 0.00966138 0.00966138 4.73495e-05 172.668 12951.5 18238.6 
605 3.6468 3.6468 0 0.00885584 0.00885584 -2.47104e-05 153.613 11591.8 16436.2 
645 0.0448 0.0448 0 1.33753e-05 1.33753e-05 9.37235e-06 16.6728 2504.25 3477.4 
685 0.0656 0.0656 0 -0.00013741 -0.00013741 2.25334e-06 2.28015 252.869 354.069 
725 0.0762 0.0762 0 -0.000203257 -0.000203257 8.70331e-06 2.89917 307.06 421.274 
765 0.1042 0.1042 0 -0.000341003 -0.000341003 3.27383e-06 4.2008 362.16 564.25 
805 0.1572 0.1572 0 -0.000557139 -0.000557139 -2.76896e-05 6.52105 484.393 700.45 
845 0.18 0.18 0 -0.000669395 -0.000669395 -1.06155e-05 7.56104 591.534 865.736 
885 0.2302 0.2302 0 -0.000882936 -0.000882936 1.40309e-05 10.0416 769.763 1149.15 
925 0.2234 0.2234 0 -0.00083696 -0.00083696 -1.4124e-05 9.73562 843.414 1307.01 
965 0.0172 0.0172 0 -5.72247e-05 -5.72247e-05 3.69847e-06 7.76312 938.146 1376.75 
1005 0.2024 0.2024 0 -0.000250053 -0.000250053 -1.89734e-05 8.69013 1108.34 1431.12 
1045 0.1722 0.1722 0 -0.000164212 -0.000164212 1.82504e-05 7.15322 1044.85 1271.25 
1085 0.1678 0.1678 0 -0.000127979 -0.000127979 -1.3474e-05 7.1979 1294 1569.21 
1125 0.1708 0.1708 0 -0.000133284 -0.000133284 -1.52888e-05 7.25958 989.825 1289.7 
1165 0.1726 0.1726 0 -0.000115477 -0.000115477 2.35129e-05 7.12844 1003.13 1171.64 
1205 0.1716 0.1716 0 -8.99109e-05 -8.99109e-05 1.17139e-05 6.90618 1060.85 1219.72 
1245 0.1844 0.1844 0 -6.98938e-05 -6.98938e-05 -2.04573e-05 7.10545 1025.31 1355.73 
6 0.1012 0.1012 0 0.000209306 0.000209306 2.15504e-05 40.0184 5287.76 7407.33 
46 7.5056 7.5056 0 0.0279932 0.0279932 0.000145186 311.081 20204.6 28696 
86 8.6816 8.6816 0 0.0316365 0.0316365 -2.47976e-05 356.449 19826.9 28120.7 
126 9.2964 9.2964 0 0.0338607 0.0338607 -0.000213985 383.849 22964.3 32657.5 
166 9.8096 9.8096 0 0.035598 0.035598 -7.17578e-05 404.641 22638.2 31927.9 
206 10.109 10.109 0 0.0367524 0.0367524 -3.02889e-05 419.744 26320.3 36834.3 
246 10.269 10.269 0 0.0379189 0.0379189 -0.000187015 434.765 32875.2 45743.4 
286 10.4098 10.4098 0 0.0385717 0.0385717 -9.53674e-05 445.639 38188 53767.2 
326 0.422 0.422 0 0.00217866 0.00217866 -1.67308e-05 213.837 56330.8 78710.9 
366 3.8688 3.8688 0 0.0104274 0.0104274 5.30548e-06 176.25 24691.1 35061.5 
406 4.1994 4.1994 0 0.0105484 0.0105484 5.47729e-05 183.687 19646.4 27828.8 
446 4.2816 4.2816 0 0.0103439 0.0103439 -4.02921e-05 183.653 16454.5 23364.4 
486 4.2968 4.2968 0 0.0102958 0.0102958 1.85703e-05 183.292 15699.6 22059.7 
526 4.3096 4.3096 0 0.0100433 0.0100433 -3.38124e-05 181.213 14043.5 19847.9 
566 4.0408 4.0408 0 0.00949604 0.00949604 -3.23702e-06 169.947 12501.8 17451 
606 3.7028 3.7028 0 0.00920568 0.00920568 -3.54776e-05 157.571 13090.6 18155.6 
646 0.039 0.039 0 5.3427e-06 5.3427e-06 -8.90459e-06 13.7285 2016.89 2924.33 
686 0.0588 0.0588 0 -0.000131093 -0.000131093 -5.10788e-06 2.12802 253.637 334.413 
726 0.0714 0.0714 0 -0.000176921 -0.000176921 -1.70504e-05 2.71953 446.876 559.924 
766 0.1068 0.1068 0 -0.000350068 -0.000350068 -1.18673e-05 4.31027 390.408 552.984 
806 0.1668 0.1668 0 -0.00058029 -0.00058029 -2.08616e-05 6.83175 595.566 798.005 
846 0.201 0.201 0 -0.000742671 -0.000742671 -1.0767e-05 8.53621 552.969 769.013 
886 0.2236 0.2236 0 -0.000835883 -0.000835883 2.90288e-06 9.58509 679.569 961.003 
926 0.2354 0.2354 0 -0.000861454 -0.000861454 -3.16368e-05 10.062 851.063 1248.81 
966 0.0206 0.0206 0 -5.7225e-05 -5.7225e-05 3.10594e-06 8.51363 992.372 1164.54 
1006 0.1966 0.1966 0 -0.000200943 -0.000200943 -5.36716e-06 8.54638 1324.27 1594.2 
1046 0.1772 0.1772 0 -0.00017066 -0.00017066 4.08396e-06 7.52065 1243.72 1469.4 
1086 0.168 0.168 0 -0.00013653 -0.00013653 1.06945e-05 7.01644 1129.93 1468.13 
1126 0.1622 0.1622 0 -0.000105115 -0.000105115 1.16676e-05 6.63817 1104.43 1306.11 
1166 0.1834 0.1834 0 -0.000117422 -0.000117422 -3.09956e-06 7.63292 1290.4 1605.33 
1206 0.1686 0.1686 0 -8.73918e-05 -8.73918e-05 -9.37673e-06 6.73538 1096.3 1381.6 
1246 0.1788 0.1788 0 -3.15144e-05 -3.15144e-05 -1.15523e-05 6.74018 1237.57 1580.35 
7 0.1218 0.1218 0 0.000293377 0.000293377 -1.26151e-05 48.5631 6441.03 9060.78 
47 7.646 7.646 0 0.028328 0.028328 -0.000149456 315.996 20492.1 28961.6 
87 8.5622 8.5622 0 0.0313965 0.0313965 -9.96526e-05 353.352 22372.2 31104.6 
127 9.255 9.255 0 0.0334975 0.0334975 1.65607e-05 379.886 21926.1 30624.2 
167 9.7694 9.7694 0 0.035154 0.035154 0.000161807 400.204 21582.3 30872.4 
207 10.1386 10.1386 0 0.0368584 0.0368584 -2.92019e-05 420.953 26770.3 37176.8 
247 10.4022 10.4022 0 0.0378735 0.0378735 8.09157e-05 434.355 28459.6 40360.9 
287 10.2852 10.2852 0 0.0379495 0.0379495 2.64638e-05 439.236 37244.4 53007.5 
327 0.3554 0.3554 0 0.00177262 0.00177262 -2.5345e-05 176.778 42477.7 61479 
367 3.9176 3.9176 0 0.0103751 0.0103751 -4.15114e-05 177.182 25056.6 35357.5 
407 4.2766 4.2766 0 0.0105354 0.0105354 -1.32022e-05 187.086 20174.9 28814.9 
447 4.3422 4.3422 0 0.0105477 0.0105477 -4.19902e-05 186.765 17674.1 25055.3 
487 4.302 4.302 0 0.0101661 0.0101661 3.46647e-05 182.396 15129.5 20921 
527 4.1946 4.1946 0 0.00986868 0.00986868 -4.57395e-05 177.259 13855.6 19606.1 
567 4.0766 4.0766 0 0.0097063 0.0097063 -8.87065e-05 171.522 13601.8 18935.3 
607 3.6486 3.6486 0 0.00891208 0.00891208 -1.03148e-05 153.406 12134.2 17188.3 
647 0.0276 0.0276 0 -1.1672e-05 -1.1672e-05 6.75869e-06 9.90579 1086.57 1546.21 
687 0.0666 0.0666 0 -0.000149049 -0.000149049 -1.84981e-06 2.34054 287.371 382.837 
727 0.0708 0.0708 0 -0.000182596 -0.000182596 -9.29962e-06 2.57956 254.655 411.917 
767 0.1094 0.1094 0 -0.000351601 -0.000351601 3.80105e-07 4.34321 355.6 571.694 
807 0.165 0.165 0 -0.000568103 -0.000568103 2.82587e-07 6.63673 540.56 685.735 
847 0.202 0.202 0 -0.0007259 -0.0007259 5.71756e-06 8.34437 603.161 914.605 
887 0.2198 0.2198 0 -0.000791287 -0.000791287 -1.41463e-05 9.17519 666.161 979.977 
927 0.2246 0.2246 0 -0.000811227 -0.000811227 1.80572e-05 9.66132 798.41 1169.75 
967 0.0154 0.0154 0 -3.70923e-05 -3.70923e-05 2.42202e-06 7.03765 485.867 726.165 
1007 0.1922 0.1922 0 -0.000217628 -0.000217628 -4.60828e-06 8.25425 1215.55 1400.5 
1047 0.1778 0.1778 0 -0.000138921 -0.000138921 5.02047e-06 7.34824 1299.2 1574.42 
1087 0.1778 0.1778 0 -0.000121083 -0.000121083 -5.21419e-06 7.3453 1159.31 1360.84 
1127 0.1778 0.1778 0 -0.000142294 -0.000142294 -1.04724e-06 7.46562 1209.74 1479 
1167 0.1682 0.1682 0 -0.000100514 -0.000100514 -1.56484e-05 6.97258 1118.61 1460.55 
1207 0.1842 0.1842 0 -9.3847e-05 -9.3847e-05 1.04721e-05 7.33686 1153.38 1395.16 
1247 0.1882 0.1882 0 -4.59481e-05 -4.59481e-05 -5.90819e-06 7.1164 1061.28 1328.75 
8 0.1462 0.1462 0 0.000407601 0.000407601 -1.186e-05 60.1272 8762.54 11877.4 
48 7.6118 7.6118 0 0.0285779 0.0285779 6.14965e-05 317.361 21521.8 30365 
88 8.7476 8.7476 0 0.0319097 0.0319097 -5.29103e-05 359.559 20490.4 28756.4 
128 9.4164 9.4164 0 0.0341114 0.0341114 -0.00011067 387.431 21659.7 30674.3 
168 9.7164 9.7164 0 0.0354495 0.0354495 3.77551e-06 403.341 25598.1 35766.4 
208 10.1764 10.1764 0 0.0367842 0.0367842 -3.47657e-05 419.879 25309.4 34928.1 
248 10.3392 10.3392 0 0.0377741 0.0377741 3.72735e-07 433.499 29051.3 41275 
288 10.1642 10.1642 0 0.0380144 0.0380144 -0.000164877 439.88 41658.8 58428 
328 0.3444 0.3444 0 0.00170681 0.00170681 -4.19902e-05 170.429 42753.1 63735 
368 3.9024 3.9024 0 0.0102491 0.0102491 6.48053e-05 175.744 24192 34050 
408 4.1894 4.1894 0 0.0105798 0.0105798 -2.33629e-05 183.598 20193.7 28341 
448 4.3162 4.3162 0 0.0103905 0.0103905 -3.07461e-06 184.37 16829.1 23861.7 
488 4.2692 4.2692 0 0.0101149 0.0101149 -3.72406e-05 180.719 14556.3 20756.9 
528 4.2596 4.2596 0 0.0101305 0.0101305 3.68341e-05 180.488 13910.8 19678.8 
568 4.0722 4.0722 0 0.00961161 0.00961161 3.80568e-06 171.26 12560.7 18011.4 
608 3.6078 3.6078 0 0.00882151 0.00882151 -9.26217e-05 152.63 12205.2 16969.2 
648 0.0212 0.0212 0 -1.47239e-05 -1.47239e-05 -3.52123e-06 7.42844 1169.55 1572.23 
688 0.0586 0.0586 0 -0.000118414 -0.000118414 -1.2417e-05 1.99944 252.963 358.111 
728 0.0804 0.0804 0 -0.000222974 -0.000222974 1.91946e-06 3.03629 400.257 536.188 
768 0.1142 0.1142 0 -0.000378126 -0.000378126 8.34344e-06 4.58513 390.389 540.291 
808 0.158 0.158 0 -0.000557267 -0.000557267 6.5865e-06 6.54939 456.103 717.457 
848 0.1994 0.1994 0 -0.000734687 -0.000734687 1.28343e-05 8.29154 550.47 945.346 
888 0.2296 0.2296 0 -0.00083282 -0.00083282 -3.8725e-06 9.56119 673.608 985.321 
928 0.2218 0.2218 0 -0.000798396 -0.000798396 -7.90582e-06 9.38532 658.051 1020.06 
968 0.0176 0.0176 0 -3.45659e-05 -3.45659e-05 8.31549e-06 7.82232 1313.87 1669.23 
1008 0.1866 0.1866 0 -0.000225274 -0.000225274 -2.43857e-05 7.85073 1048.99 1414.45 
1048 0.1744 0.1744 0 -0.000162826 -0.000162826 6.29168e-06 7.32277 1209.45 1499.1 
1088 0.1772 0.1772 0 -0.000139345 -0.000139345 2.58589e-06 7.62317 1191.1 1456.34 
1128 0.163 0.163 0 -9.41411e-05 -9.41411e-05 6.97448e-06 6.70042 1116.18 1359.01 
1168 0.165 0.165 0 -7.51031e-05 -7.51031e-05 4.10486e-06 6.55128 1084.91 1273.33 
1208 0.1696 0.1696 0 -0.000108971 -0.000108971 -1.45878e-05 6.85387 1017.74 1261.08 
1248 0.1818 0.1818 0 -4.89672e-05 -4.89672e-05 7.09568e-06 6.82734 983.621 1324.46 
9 0.1906 0.1906 0 0.000607482 0.000607482 -1.88639e-05 77.9258 11137.4 15273.4 
49 7.5554 7.5554 0 0.0281966 0.0281966 -3.18285e-05 313.963 20170.2 28198.5 
89 8.6948 8.6948 0 0.0315257 0.0315257 3.49626e-05 356.256 19812.4 28152 
129 9.2532 9.2532 0 0.0337427 0.0337427 5.30667e-05 381.919 22786.5 31835.9 
169 9.7916 9.7916 0 0.0354099 0.0354099 6.26641e-06 402.494 22540.3 31341.1 
209 10.1758 10.1758 0 0.0367927 0.0367927 8.14027e-05 421.097 24228.3 34085.8 
249 10.3212 10.3212 0 0.037969 0.037969 -2.46662e-05 435.344 32518.9 45545.3 
289 10.3774 10.3774 0 0.0386962 0.0386962 9.05502e-05 447.128 39796 55752.8 
329 0.305 0.305 0 0.00145264 0.00145264 -1.39072e-05 148.756 39211.3 56438 
369 3.9554 3.9554 0 0.0106322 0.0106322 -3.00661e-05 179.483 25929.4 36587.9 
409 4.1972 4.1972 0 0.0104069 0.0104069 4.37819e-05 182.085 18685.2 27117.2 
449 4.2796 4.2796 0 0.0102827 0.0102827 3.45979e-05 183.417 16207.6 23176.9 
489 4.2572 4.2572 0 0.0102404 0.0102404 -8.12551e-05 181.632 15333.9 21459.9 
529 4.2024 4.2024 0 0.0098405 0.0098405 -5.50833e-05 176.831 13303.1 18888.5 
569 4.0552 4.0552 0 0.00944237 0.00944237 -3.25918e-05 170.597 12939.9 17962.1 
609 3.602 3.602 0 0.00891091 0.00891091 -4.67458e-05 152.558 12178.7 17178.3 
649 0.0164 0.0164 0 -1.79764e-05 -1.79764e-05 7.38902e-06 5.18526 317.169 655.784 
689 0.0588 0.0588 0 -0.00012732 -0.00012732 2.89597e-06 2.1371 307.485 389.631 
729 0.0778 0.0778 0 -0.000212027 -0.000212027 8.73373e-06 2.95177 289.611 354.287 
769 0.1058 0.1058 0 -0.00035672 -0.00035672 6.26738e-06 4.3348 415.246 516.725 
809 0.152 0.152 0 -0.000540694 -0.000540694 7.92631e-06 6.38207 535.66 736.769 
849 0.2068 0.2068 0 -0.000754099 -0.000754099 -1.30883e-05 8.68185 659.041 928.775 
889 0.2342 0.2342 0 -0.000861612 -0.000861612 2.28655e-06 9.91461 625.625 1008.2 
929 0.2158 0.2158 0 -0.000770086 -0.000770086 1.90892e-05 9.04818 635.759 977.99 
969 0.0158 0.0158 0 -3.47096e-05 -3.47096e-05 -9.56135e-06 7.16187 753.426 1095.68 
1009 0.196 0.196 0 -0.000211032 -0.000211032 9.05236e-06 8.28816 1146.14 1416.26 
1049 0.1672 0.1672 0 -0.000158434 -0.000158434 4.62604e-06 7.23089 1223.95 1421.46 
1089 0.1628 0.1628 0 -0.000134107 -0.000134107 7.17024e-06 6.82288 1152.19 1373.36 
1129 0.1734 0.1734 0 -0.000136877 -0.000136877 -4.34955e-06 7.39518 1047.6 1290.33 
1169 0.169 0.169 0 -0.000111757 -0.000111757 -1.84732e-06 6.94427 1053.32 1337.38 
1209 0.1744 0.1744 0 -8.87325e-05 -8.87325e-05 -2.11069e-05 6.84082 1047.16 1267.19 
1249 0.185 0.185 0 -4.46602e-05 -4.46602e-05 -6.65616e-06 6.98186 1033.57 1409.24 
10 0.212 0.212 0 0.000705182 0.000705182 -1.51134e-07 88.1404 11342.8 15231 
50 7.7062 7.7062 0 0.028729 0.028729 5.03642e-05 320.718 20553 29076 
90 8.624 8.624 0 0.0318086 0.0318086 3.07004e-05 358.929 22349.3 31284 
130 9.3246 9.3246 0 0.0340054 0.0340054 1.21712e-05 385.556 21969.6 31235.3 
170 9.7892 9.7892 0 0.0353207 0.0353207 -7.71084e-05 403.265 22087.6 31407.2 
210 10.042 10.042 0 0.0366495 0.0366495 -0.000106525 417.79 27420.9 37757.4 
250 10.4438 10.4438 0 0.0381101 0.0381101 2.02418e-05 437.131 30009.8 42324.9 
290 10.4186 10.4186 0 0.0385245 0.0385245 8.9255e-05 446.101 38483.9 55120 
330 0.2676 0.2676 0 0.00121823 0.00121823 1.6636e-05 130.385 33660.1 48226.9 
370 3.9352 3.9352 0 0.010349 0.010349 -7.41543e-05 177.338 24324 34389.7 
410 4.2034 4.2034 0 0.0104791 0.0104791 -8.10782e-05 184.684 19213.6 27679.4 
450 4.2968 4.2968 0 0.0104607 0.0104607 3.22232e-05 185.189 17341.4 24285 
490 4.243 4.243 0 0.0101513 0.0101513 -8.85188e-05 180.381 14585.6 20955.5 
530 4.2356 4.2356 0 0.00982078 0.00982078 3.20042e-05 178.281 13600.5 19183.3 
570 4.1238 4.1238 0 0.0098656 0.0098656 7.02695e-05 173.393 13154.3 18594.9 
610 3.5324 3.5324 0 0.00877023 0.00877023 0.000121214 149.668 12261.8 17140.2 
650 0.014 0.014 0 -2.13792e-05 -2.13792e-05 3.54392e-06 5.02795 129.988 360.169 
690 0.0628 0.0628 0 -0.000134209 -0.000134209 3.59889e-06 2.2014 283.856 343.215 
730 0.0798 0.0798 0 -0.000208677 -0.000208677 3.14304e-06 3.01329 351.247 447.399 
770 0.1208 0.1208 0 -0.000392619 -0.000392619 -5.26925e-06 4.90069 437.372 615.759 
810 0.1626 0.1626 0 -0.000571176 -0.000571176 -8.25183e-06 6.62476 577.228 786.058 
850 0.1994 0.1994 0 -0.000739083 -0.000739083 -2.25276e-05 8.39 554.598 852.948 
890 0.224 0.224 0 -0.000822655 -0.000822655 4.98332e-06 9.53013 650.678 884.014 
930 0.2126 0.2126 0 -0.000773418 -0.000773418 -3.52318e-06 9.15286 766.626 1094.18 
970 0.0516 0.0516 0 -7.70004e-05 -7.70004e-05 -4.67926e-06 9.05453 1073.14 1505.97 
1010 0.179 0.179 0 -0.000195227 -0.000195227 -9.24521e-06 7.62105 918.898 1213.57 
1050 0.1684 0.1684 0 -0.000144179 -0.000144179 1.75129e-06 6.90834 1028.46 1336.6 
1090 0.163 0.163 0 -0.000123052 -0.000123052 -3.78757e-06 6.85866 1109.12 1387.21 
1130 0.1702 0.1702 0 -0.000135616 -0.000135616 -5.65733e-06 7.04589 1059.74 1276.55 
1170 0.1824 0.1824 0 -0.000105242 -0.000105242 9.03486e-06 7.38417 1120.96 1321.8 
1210 0.1692 0.1692 0 -8.21372e-05 -8.21372e-05 1.83404e-06 6.71442 1016.31 1327.16 
1250 0.1838 0.1838 0 -3.22996e-05 -3.22996e-05 1.28853e-05 6.73932 1073.93 1367.54 
11 0.259 0.259 0 0.000992422 0.000992422 -2.12665e-05 112.881 16657.1 21724.1 
51 7.568 7.568 0 0.0282804 0.0282804 -4.04165e-05 315.118 21056.3 28874.6 
91 8.706 8.706 0 0.0316233 0.0316233 -2.57274e-05 357.612 20389.7 28962.2 
131 9.439 9.439 0 0.0341167 0.0341167 -1.53615e-05 386.892 20600.5 29624.1 
171 9.8022 9.8022 0 0.0357373 0.0357373 0.000134941 406.19 25622.6 35174.9 
211 10.1572 10.1572 0 0.0369712 0.0369712 8.67548e-05 420.968 25122.3 35384.1 
251 10.4412 10.4412 0 0.038348 0.038348 -6.54886e-05 438.993 30607.3 43657.6 
291 10.2138 10.2138 0 0.0384914 0.0384914 9.42303e-05 445.404 44930.8 62654.8 
331 0.2274 0.2274 0 0.000974199 0.000974199 -1.33222e-05 108.857 25466.6 37600.5 
371 3.9654 3.9654 0 0.0103594 0.0103594 5.74566e-06 178.077 23493 33575.1 
411 4.248 4.248 0 0.0107185 0.0107185 -8.73862e-05 187.092 20295.9 28191.5 
451 4.3102 4.3102 0 0.0103876 0.0103876 1.07242e-05 183.456 16381.9 23087.9 
491 4.2244 4.2244 0 0.0100347 0.0100347 1.57061e-05 179.016 14240.2 20225 
531 4.2442 4.2442 0 0.0101174 0.0101174 -3.02584e-05 180.079 14059.6 19548.6 
571 4.0492 4.0492 0 0.0095122 0.0095122 -6.91317e-05 169.879 12495.3 17438.3 
611 3.54 3.54 0 0.00870966 0.00870966 -3.36139e-05 149.167 12051.5 17060.1 
651 0.0094 0.0094 0 -1.9701e-05 -1.9701e-05 -3.22177e-06 3.2351 204.088 212.66 
691 0.0574 0.0574 0 -0.000124657 -0.000124657 -3.70502e-07 2.02322 245.949 326.107 
731 0.0758 0.0758 0 -0.000207824 -0.000207824 1.94778e-05 2.88913 415.174 517.603 
771 0.1078 0.1078 0 -0.000341197 -0.000341197 -1.10107e-05 4.34915 376.364 445.081 
811 0.1612 0.1612 0 -0.000571374 -0.000571374 -7.37629e-06 6.74757 522.087 771.407 
851 0.2046 0.2046 0 -0.000747545 -0.000747545 -3.3119e-06 8.52664 632.325 835.685 
891 0.2298 0.2298 0 -0.00083977 -0.00083977 9.80799e-06 9.59401 802.78 1206.04 
931 0.2146 0.2146 0 -0.000775607 -0.000775607 1.63711e-05 9.18907 723.612 1078.21 
971 0.0492 0.0492 0 -6.29191e-05 -6.29191e-05 -4.57765e-06 8.16344 1110.11 1340.09 
1011 0.1882 0.1882 0 -0.000207728 -0.000207728 -5.78425e-06 8.0319 1158.09 1424.46 
1051 0.1732 0.1732 0 -0.00015139 -0.00015139 -3.41944e-06 7.17568 1098.28 1347.31 
1091 0.1736 0.1736 0 -0.000153464 -0.000153464 -2.36162e-05 7.11106 1089.94 1288.66 
1131 0.1692 0.1692 0 -0.000101276 -0.000101276 1.37609e-05 7.0653 1252.29 1390.65 
1171 0.191 0.191 0 -0.000127649 -0.000127649 -1.62829e-05 7.68088 1127.61 1406.01 
1211 0.1806 0.1806 0 -5.54619e-05 -5.54619e-05 1.56375e-05 7.16866 1299.18 1567.87 
1251 0.1928 0.1928 0 -4.32411e-05 -4.32411e-05 3.85565e-06 7.22963 994.133 1352.61 
12 0.2738 0.2738 0 0.0011032 0.0011032 2.36061e-05 119.48 18271.8 23188.6 
52 7.675 7.675 0 0.0286816 0.0286816 5.13496e-05 319.78 20191.9 28258.9 
92 8.7604 8.7604 0 0.0321591 0.0321591 0.000117307 362.444 20495 28887.4 
132 9.2904 9.2904 0 0.0339415 0.0339415 0.000145956 384.465 23529.3 32257.2 
172 9.7966 9.7966 0 0.0355155 0.0355155 -3.66487e-05 404.016 23240.9 32460.6 
212 10.2758 10.2758 0 0.0370647 0.0370647 1.52205e-05 424.295 24044.9 34314.9 
252 10.272 10.272 0 0.0376677 0.0376677 1.77197e-05 431.484 31190.9 43568.8 
292 10.2876 10.2876 0 0.0381438 0.0381438 -6.13545e-05 442.821 40085.8 56644.1 
332 0.2056 0.2056 0 0.000816422 0.000816422 -7.6384e-06 101.184 24937.2 35794.1 
372 4.0206 4.0206 0 0.0107104 0.0107104 2.35151e-06 181.712 24539 34417 
412 4.323 4.323 0 0.0107622 0.0107622 6.48608e-05 188.476 19148 27267.8 
452 4.2632 4.2632 0 0.0101961 0.0101961 -0.000104107 182.089 15996.7 22793.6 
492 4.2704 4.2704 0 0.0102283 0.0102283 6.33743e-05 181.829 15511.8 22065.3 
532 4.2216 4.2216 0 0.00995897 0.00995897 -3.84063e-05 177.377 13136.8 18984.8 
572 4.0444 4.0444 0 0.00950938 0.00950938 4.83396e-05 170.52 12399 17530.2 
612 3.568 3.568 0 0.00879601 0.00879601 -4.1935e-05 150.267 12416.6 17538.8 
652 0.023 0.023 0 -4.45448e-05 -4.45448e-05 -6.82467e-06 2.86998 163.356 310.375 
692 0.06 0.06 0 -0.000128313 -0.000128313 -2.03904e-08 2.11406 317.917 403.833 
732 0.0802 0.0802 0 -0.000225333 -0.000225333 5.7302e-06 3.12926 258.867 370.236 
772 0.107 0.107 0 -0.000359531 -0.000359531 1.99437e-05 4.35301 430.834 627.521 
812 0.1682 0.1682 0 -0.000607547 -0.000607547 1.05934e-06 7.07162 617.333 887.545 
852 0.1986 0.1986 0 -0.000729411 -0.000729411 2.39921e-06 8.3128 593.579 873.057 