ITEM: TIMESTEP
25000
ITEM: NUMBER OF SURFS
1272
ITEM: BOX BOUNDS oo rr pp
0 0.3
0 0.3
-0.5 0.5
ITEM: SURFS id f_4[1] f_4[2] f_4[3] f_4[4] f_4[5] f_4[6] f_4[7] f_4[8] f_4[9] 
1 0.0538 0.0538 0 7.97916e-05 7.97916e-05 4.075e-06 20.3895 2749.1 4402.31 
41 8.5118 8.5118 0 0.035709 0.035709 -0.000102348 358.86 27507.4 38325.3 
81 9.8982 9.8982 0 0.0405007 0.0405007 -8.94236e-05 409.486 23613.7 33512 
121 10.3096 10.3096 0 0.0421934 0.0421934 5.65215e-05 426.836 25438.7 36133.4 
161 10.6698 10.6698 0 0.0434775 0.0434775 2.20084e-05 440.799 25290 35825.6 
201 10.634 10.634 0 0.0432105 0.0432105 7.06348e-05 438.569 24839.8 34693.4 
241 10.48 10.48 0 0.0430227 0.0430227 -0.00012754 437.458 29612.6 41328.5 
281 9.956 9.956 0 0.0410478 0.0410478 -7.6954e-05 418.819 30463 43120.4 
321 0.451 0.451 0 0.00214961 0.00214961 -3.37337e-05 211.852 37722.7 53725.2 
361 1.0468 1.0468 0 0.00195096 0.00195096 -1.69953e-05 47.387 8269.57 11173.2 
401 1.3454 1.3454 0 0.00200251 0.00200251 2.35274e-06 59.727 8388.89 11893.2 
441 1.4824 1.4824 0 0.00207408 0.00207408 -6.58186e-06 66.5212 8397 11839 
481 1.5854 1.5854 0 0.00201296 0.00201296 6.01815e-05 69.5009 8108.31 11078.3 
521 1.557 1.557 0 0.00202209 0.00202209 -3.31323e-05 67.8549 7578.12 10782.1 
561 1.559 1.559 0 0.00194783 0.00194783 9.43406e-05 67.5611 6894.08 9656 
601 1.4742 1.4742 0 0.00199397 0.00199397 2.29074e-05 63.0379 6868.24 9550.95 
641 0.041 0.041 0 1.32033e-05 1.32033e-05 4.59365e-06 17.5526 2711.51 3520.52 
681 0.0678 0.0678 0 -0.000247322 -0.000247322 -1.17656e-05 2.55065 182.033 271.795 
721 0.1276 0.1276 0 -0.000505956 -0.000505956 -2.33461e-06 5.11696 396.417 672.099 
761 0.161 0.161 0 -0.000662274 -0.000662274 -1.01774e-05 6.6393 543.155 817.267 
801 0.1912 0.1912 0 -0.000820552 -0.000820552 -6.47915e-06 8.27685 673.034 939.916 
841 0.219 0.219 0 -0.000905123 -0.000905123 1.16441e-06 9.18814 816.35 1112.05 
881 0.1976 0.1976 0 -0.000840172 -0.000840172 -1.83187e-07 8.59755 603.546 1004.92 
921 0.1362 0.1362 0 -0.000542317 -0.000542317 -1.00525e-05 5.6086 451.531 741.516 
961 0.0124 0.0124 0 -3.30811e-05 -3.30811e-05 6.30963e-06 4.76689 395.792 641.915 
1001 0.4766 0.4766 0 0.000142655 0.000142655 -1.63797e-05 20.8724 2958.77 3845.97 
1041 0.505 0.505 0 0.000104395 0.000104395 -1.67783e-05 21.7543 3149.08 4056.68 
1081 0.5152 0.5152 0 9.49083e-05 9.49083e-05 1.49867e-05 22.6162 3195.5 4272.9 
1121 0.486 0.486 0 0.000120064 0.000120064 3.52069e-05 21.5198 3029.4 4008.63 
1161 0.481 0.481 0 0.000200892 0.000200892 -3.30418e-06 21.1856 3231.29 4349.93 
1201 0.4274 0.4274 0 0.000230907 0.000230907 3.541e-05 18.662 3031.58 3932.02 
1241 0.375 0.375 0 0.000304747 0.000304747 5.81932e-06 15.7014 2618.12 3461.67 
2 0.058 0.058 0 0.000124421 0.000124421 -3.33006e-06 21.4088 3112.68 4774.52 
42 8.539 8.539 0 0.0358124 0.0358124 -6.15072e-05 359.835 27833.1 38452.9 
82 9.783 9.783 0 0.0399413 0.0399413 -0.000116767 403.715 22600.2 33388.5 
122 10.312 10.312 0 0.0421804 0.0421804 -0.000130359 426.95 24866.8 34094.8 
162 10.5114 10.5114 0 0.043163 0.043163 1.07514e-05 437.664 27469.2 38897.1 
202 10.7374 10.7374 0 0.0435946 0.0435946 -7.52292e-05 442.469 25394.1 35432.2 
242 10.5944 10.5944 0 0.043375 0.043375 0.000109267 441.303 28063.8 39204.2 
282 9.9314 9.9314 0 0.0411398 0.0411398 -7.87769e-06 419.736 31114.2 44376.4 
322 0.4142 0.4142 0 0.00196574 0.00196574 2.9047e-05 191.566 34733.7 47514.3 
362 1.0838 1.0838 0 0.00204597 0.00204597 -2.1891e-05 49.2078 8416.16 11571.6 
402 1.3466 1.3466 0 0.00209676 0.00209676 -5.79168e-05 60.6102 8659.21 12239.8 
442 1.4754 1.4754 0 0.00198179 0.00198179 3.72535e-05 65.7152 8286.87 11600 
482 1.5526 1.5526 0 0.00208979 0.00208979 1.22633e-05 67.8354 7608.11 10736.2 
522 1.5998 1.5998 0 0.00205618 0.00205618 8.29084e-05 70.1001 7739.94 10714.5 
562 1.5782 1.5782 0 0.00201119 0.00201119 4.93322e-05 68.384 7282.46 9855.22 
602 1.4736 1.4736 0 0.00195635 0.00195635 -3.49086e-05 63.5108 6565.18 9126.69 
642 0.034 0.034 0 -4.98249e-07 -4.98249e-07 -2.68862e-06 14.0317 2540.69 3361.52 
682 0.0774 0.0774 0 -0.000280736 -0.000280736 6.48352e-08 2.88897 239.147 379.3 
722 0.1208 0.1208 0 -0.000500887 -0.000500887 5.51032e-06 5.02659 351.842 521.46 
762 0.1732 0.1732 0 -0.000733212 -0.000733212 1.40343e-05 7.35711 594.121 853.003 
802 0.199 0.199 0 -0.000834519 -0.000834519 2.56301e-06 8.40676 673.884 923.453 
842 0.222 0.222 0 -0.000936857 -0.000936857 1.10971e-05 9.51561 787.389 1121.95 
882 0.1874 0.1874 0 -0.000788223 -0.000788223 3.97325e-05 8.05037 738.735 1084.74 
922 0.1472 0.1472 0 -0.000591483 -0.000591483 9.8471e-06 6.11867 460.38 761.25 
962 0.0136 0.0136 0 -2.94166e-05 -2.94166e-05 3.8846e-06 5.29244 438.991 780.132 
1002 0.4658 0.4658 0 8.81992e-05 8.81992e-05 -2.78741e-05 20.7452 2767.54 3690.6 
1042 0.51 0.51 0 8.29344e-05 8.29344e-05 6.11848e-06 22.0015 2996.99 3981.3 
1082 0.4862 0.4862 0 0.000101077 0.000101077 1.75136e-06 21.5454 3023.08 3965.32 
1122 0.4708 0.4708 0 9.88454e-05 9.88454e-05 1.81821e-05 20.6016 2816.02 3737.43 
1162 0.4454 0.4454 0 0.000188925 0.000188925 4.66084e-06 19.6881 3229.96 4138.67 
1202 0.424 0.424 0 0.000229327 0.000229327 -4.01637e-06 18.6525 3053.3 3761.66 
1242 0.3864 0.3864 0 0.000327942 0.000327942 -9.89688e-06 16.2902 2942.04 3737.81 
3 0.0776 0.0776 0 0.000197483 0.000197483 9.291e-06 29.8404 4383.93 6811.3 
43 8.5806 8.5806 0 0.0359475 0.0359475 9.39094e-06 361.121 27123 37530.1 
83 9.8932 9.8932 0 0.0405124 0.0405124 2.2354e-05 409.161 24470.2 34402.5 
123 10.2764 10.2764 0 0.0417714 0.0417714 9.33949e-05 422.895 23951.4 33744.8 
163 10.494 10.494 0 0.0430176 0.0430176 2.86812e-05 436.197 27552.9 38089.7 
203 10.6636 10.6636 0 0.043246 0.043246 2.01207e-05 438.927 24958.9 35678 
243 10.606 10.606 0 0.0434294 0.0434294 -7.81825e-05 441.53 28705.7 39950.6 
283 9.8898 9.8898 0 0.0412146 0.0412146 -1.86592e-05 420.94 34636.1 48031.1 
323 0.3596 0.3596 0 0.0016816 0.0016816 -1.30654e-05 163 29981.2 41676.6 
363 1.0774 1.0774 0 0.00199689 0.00199689 -1.16073e-05 48.7487 8717.37 11591.3 
403 1.3496 1.3496 0 0.0020586 0.0020586 -3.6208e-05 60.4315 8621.89 12094.1 
443 1.5014 1.5014 0 0.00204306 0.00204306 -4.84145e-06 66.0987 8181.67 11503.1 
483 1.5746 1.5746 0 0.00197567 0.00197567 1.16529e-05 68.5141 7527.64 10735.8 
523 1.58 1.58 0 0.00203198 0.00203198 1.54879e-05 68.9777 7553.42 10415.4 
563 1.5982 1.5982 0 0.00205954 0.00205954 5.92732e-06 69.3469 7256.83 10085.2 
603 1.4566 1.4566 0 0.00199458 0.00199458 5.10504e-06 63.0461 6735.71 9341.24 
643 0.0256 0.0256 0 -7.29685e-06 -7.29685e-06 6.99327e-06 10.1041 1636.79 2104.22 
683 0.0758 0.0758 0 -0.000288607 -0.000288607 7.25738e-06 2.92148 177.084 268.49 
723 0.1368 0.1368 0 -0.000561487 -0.000561487 1.32284e-05 5.66007 569.241 843.757 
763 0.1814 0.1814 0 -0.000743389 -0.000743389 -6.34904e-07 7.50387 587.89 867.928 
803 0.2042 0.2042 0 -0.000873749 -0.000873749 1.59692e-05 8.84316 649.473 985.935 
843 0.2162 0.2162 0 -0.000915938 -0.000915938 -4.60982e-06 9.27938 762.873 1015.66 
883 0.1956 0.1956 0 -0.000808556 -0.000808556 -1.81237e-06 8.27664 771.66 1151.04 
923 0.1466 0.1466 0 -0.000580184 -0.000580184 7.84585e-07 6.00737 280.53 496.996 
963 0.0132 0.0132 0 -2.17158e-05 -2.17158e-05 -3.99848e-06 5.02822 835.388 1049.67 
1003 0.469 0.469 0 0.000120643 0.000120643 1.00696e-05 20.6112 2900.43 3709.88 
1043 0.501 0.501 0 0.000100589 0.000100589 1.63514e-05 22.005 2886.19 3855.32 
1083 0.4958 0.4958 0 0.00011592 0.00011592 -9.03759e-07 22.06 2994.32 4067.75 
1123 0.4806 0.4806 0 0.000134971 0.000134971 1.56233e-05 21.1556 3029.79 3968.66 
1163 0.4646 0.4646 0 0.000198844 0.000198844 -1.10281e-05 20.3621 3243.41 4315.16 
1203 0.4402 0.4402 0 0.00025864 0.00025864 -1.38613e-05 19.0734 3163.03 4205.24 
1243 0.3932 0.3932 0 0.000320256 0.000320256 -1.42183e-05 16.5095 2429.44 3366.91 
4 0.096 0.096 0 0.000253225 0.000253225 1.33168e-05 37.8242 5854.36 8261.26 
44 8.6302 8.6302 0 0.0361362 0.0361362 -2.7131e-05 363.362 25903.2 35867.3 
84 9.711 9.711 0 0.03987 0.03987 -0.000119531 403.281 25401.5 35449.4 
124 10.4266 10.4266 0 0.0425467 0.0425467 0.000161786 430.577 24269.9 34214 
164 10.4746 10.4746 0 0.0428319 0.0428319 -2.35128e-05 434.056 25762.1 36218.6 
204 10.715 10.715 0 0.0436794 0.0436794 0.000120702 443.669 25083.5 35710 
244 10.5316 10.5316 0 0.0431085 0.0431085 -7.07311e-05 438.587 26871.8 38201.6 
284 9.902 9.902 0 0.0411719 0.0411719 -1.43788e-05 420.611 34173 47871.9 
324 0.2918 0.2918 0 0.001342 0.001342 1.44177e-05 133.853 23403.8 31900.2 
364 1.069 1.069 0 0.00194673 0.00194673 2.70901e-05 48.6392 8650.13 11755.4 
404 1.356 1.356 0 0.00204158 0.00204158 0.00013531 61.1848 8968.15 12499.4 
444 1.4948 1.4948 0 0.00194237 0.00194237 1.42972e-05 66.0026 8148.14 11275.5 
484 1.557 1.557 0 0.00204311 0.00204311 5.75061e-05 67.9303 8138.58 10996.6 
524 1.5644 1.5644 0 0.00200192 0.00200192 -1.80618e-05 67.7897 7229.37 10417.5 
564 1.5482 1.5482 0 0.00194732 0.00194732 -1.4745e-05 66.8867 6591.2 9448.78 
604 1.4374 1.4374 0 0.00197769 0.00197769 -1.54501e-05 62.8466 6809.36 9374.48 
644 0.0186 0.0186 0 -2.14075e-05 -2.14075e-05 -1.7035e-06 7.34837 987.847 1474.61 
684 0.0648 0.0648 0 -0.000242845 -0.000242845 3.18243e-06 2.47529 178.629 283.905 
724 0.134 0.134 0 -0.000531075 -0.000531075 -2.26706e-06 5.39483 469.465 686.025 
764 0.177 0.177 0 -0.000732376 -0.000732376 1.137e-05 7.34904 638.699 926.777 
804 0.2144 0.2144 0 -0.000915545 -0.000915545 -3.3723e-05 9.18272 704.917 1023.3 
844 0.2214 0.2214 0 -0.000915728 -0.000915728 6.63646e-06 9.35572 686.591 1041.41 
884 0.1926 0.1926 0 -0.000774788 -0.000774788 -6.17208e-06 7.95241 528.392 784.755 
924 0.1432 0.1432 0 -0.000570123 -0.000570123 7.22359e-06 5.87372 397.715 626.192 
964 0.0188 0.0188 0 -2.36593e-05 -2.36593e-05 9.04577e-06 7.52186 1492.64 1704.04 
1004 0.4728 0.4728 0 0.000113658 0.000113658 1.17021e-05 21.0305 2879.73 3682.05 
1044 0.5042 0.5042 0 0.000101403 0.000101403 2.2784e-06 22.4316 2974.72 3985.42 
1084 0.5006 0.5006 0 7.87217e-05 7.87217e-05 -4.58381e-05 22.2334 2972.57 3946.98 
1124 0.497 0.497 0 0.000120204 0.000120204 4.75719e-07 21.7564 3061.6 4122.39 
1164 0.4626 0.4626 0 0.000181236 0.000181236 3.24191e-05 20.4269 3161.52 4031.25 
1204 0.4124 0.4124 0 0.000246893 0.000246893 9.07684e-07 18.2745 3114.52 3955.14 
1244 0.3876 0.3876 0 0.00034643 0.00034643 -1.06841e-06 16.0562 2880.64 3805.16 
5 0.113 0.113 0 0.000367723 0.000367723 -1.84574e-05 46.7076 8190.52 11976.5 
45 8.7358 8.7358 0 0.0365401 0.0365401 -9.94851e-06 367.753 25108.7 35384.8 
85 9.7634 9.7634 0 0.0402282 0.0402282 -6.84052e-05 406.214 26462.6 36694 
125 10.3802 10.3802 0 0.0421074 0.0421074 -9.4757e-05 426.133 23682.6 33014.7 
165 10.6558 10.6558 0 0.0435704 0.0435704 6.05183e-05 441.488 26422.7 36809.3 
205 10.6296 10.6296 0 0.0435196 0.0435196 -6.04439e-05 441.882 27773.6 38993.2 
245 10.5046 10.5046 0 0.0429888 0.0429888 -8.0877e-06 437.096 26845.3 37880.7 
285 9.8042 9.8042 0 0.040574 0.040574 5.95993e-05 414.492 32303 45645.7 
325 0.2592 0.2592 0 0.00116737 0.00116737 -4.11472e-06 115.819 21841.9 31423.6 
365 1.1242 1.1242 0 0.00206892 0.00206892 3.34277e-05 50.8356 8863.92 12073.6 
405 1.367 1.367 0 0.00204295 0.00204295 2.50728e-05 61.7877 9199.22 12396.9 
445 1.5036 1.5036 0 0.00201471 0.00201471 -7.02014e-05 66.941 8814.76 12198.5 
485 1.5578 1.5578 0 0.00203284 0.00203284 -2.6051e-05 68.4955 7936.8 10934.3 
525 1.5994 1.5994 0 0.00203519 0.00203519 -2.73144e-05 69.2835 7374.38 10491.4 
565 1.5686 1.5686 0 0.00193262 0.00193262 5.60484e-05 67.9604 7278.49 10241 
605 1.4166 1.4166 0 0.00195072 0.00195072 -4.81272e-05 61.5425 6615.17 9176.26 
645 0.0176 0.0176 0 -1.59573e-05 -1.59573e-05 -7.38307e-07 6.52066 1038.44 1643.09 
685 0.0772 0.0772 0 -0.000297468 -0.000297468 -3.2356e-06 3.03402 165.838 348.622 
725 0.1306 0.1306 0 -0.000535449 -0.000535449 -9.06646e-06 5.36914 403.247 618.538 
765 0.1806 0.1806 0 -0.000745899 -0.000745899 -2.83212e-05 7.53446 594.102 809.093 
805 0.1928 0.1928 0 -0.000817861 -0.000817861 -7.48344e-06 8.24688 722.604 1012.89 
845 0.208 0.208 0 -0.00089417 -0.00089417 -2.37871e-05 9.10839 721.742 1042.5 
885 0.1868 0.1868 0 -0.000773365 -0.000773365 4.72691e-06 7.92763 502.083 864.356 
925 0.134 0.134 0 -0.000540001 -0.000540001 -1.27347e-05 5.59344 411.923 656.562 
965 0.0256 0.0256 0 -2.01793e-05 -2.01793e-05 3.00962e-07 10.0228 1760.53 2550.91 
1005 0.4676 0.4676 0 9.65115e-05 9.65115e-05 -1.85505e-05 20.2147 2709.01 3623.47 
1045 0.5144 0.5144 0 8.8093e-05 8.8093e-05 -3.35783e-05 22.4326 2908.74 3883.81 
1085 0.4734 0.4734 0 6.25295e-05 6.25295e-05 -2.48106e-05 20.7345 2567.28 3439.74 
1125 0.485 0.485 0 0.000111267 0.000111267 1.76298e-05 21.5172 3010.13 3873.7 
1165 0.4624 0.4624 0 0.00019169 0.00019169 -6.82525e-06 20.1848 3227.9 4351.37 
1205 0.4188 0.4188 0 0.000267051 0.000267051 6.01694e-05 18.2548 2905.23 3883.64 
1245 0.368 0.368 0 0.00031233 0.00031233 -1.88987e-05 15.4005 2396.84 3236.16 
6 0.1356 0.1356 0 0.000454988 0.000454988 6.9821e-07 53.4662 7849.45 11904.1 
46 8.862 8.862 0 0.0368526 0.0368526 -7.08917e-05 371.521 25713.7 36171.4 
86 9.82 9.82 0 0.0403068 0.0403068 3.15044e-05 407.17 26565.2 36706.8 
126 10.3494 10.3494 0 0.0420975 0.0420975 6.96648e-05 426.905 24172.8 33980 
166 10.6402 10.6402 0 0.0431695 0.0431695 -5.91546e-05 438.152 25400 35564.4 
206 10.6282 10.6282 0 0.0435748 0.0435748 -3.39212e-05 442.559 28315.6 39105.1 
246 10.6486 10.6486 0 0.0434578 0.0434578 1.22741e-05 441.911 27300.9 39206.2 
286 9.7826 9.7826 0 0.0405355 0.0405355 8.29264e-05 414.286 32045.5 44889 
326 0.2142 0.2142 0 0.000944015 0.000944015 -8.25814e-06 97.6131 18502.1 26430.8 
366 1.1188 1.1188 0 0.0020017 0.0020017 -6.83797e-05 50.3332 8629.17 11901.1 
406 1.3672 1.3672 0 0.0019967 0.0019967 -1.07167e-05 61.3406 8832.57 12028.5 
446 1.5208 1.5208 0 0.00212647 0.00212647 1.31679e-05 67.398 8753.38 12173.6 
486 1.5682 1.5682 0 0.00202618 0.00202618 4.10607e-05 68.7874 7517.06 10786.7 
526 1.6076 1.6076 0 0.00203407 0.00203407 5.1144e-07 70.1824 7564.73 10400.2 
566 1.577 1.577 0 0.0020255 0.0020255 -1.63861e-05 68.3187 7063.72 9859.57 
606 1.434 1.434 0 0.00199888 0.00199888 -2.4777e-05 62.7911 6979.2 9397.94 
646 0.0134 0.0134 0 -1.65549e-05 -1.65549e-05 2.25184e-06 4.78914 749.532 1197.55 
686 0.077 0.077 0 -0.00028538 -0.00028538 -1.25249e-05 2.9411 220.769 328.998 
726 0.1416 0.1416 0 -0.000592437 -0.000592437 1.17495e-05 5.9768 433.063 715.914 
766 0.1804 0.1804 0 -0.000766176 -0.000766176 1.10461e-05 7.71017 599.302 872.768 
806 0.1936 0.1936 0 -0.00081736 -0.00081736 2.26414e-05 8.25931 712.822 999.49 
846 0.2288 0.2288 0 -0.000948715 -0.000948715 5.76405e-06 9.6674 750.491 1115.77 
886 0.1904 0.1904 0 -0.00078957 -0.00078957 1.74486e-05 8.11723 641.995 960.407 
926 0.14 0.14 0 -0.000547055 -0.000547055 -4.22671e-06 5.66799 460.784 657.513 
966 0.0224 0.0224 0 -1.07933e-05 -1.07933e-05 7.72774e-06 9.41749 1764.24 2243.84 
1006 0.4914 0.4914 0 8.41935e-05 8.41935e-05 3.11258e-05 21.6515 2911.92 3922.71 
1046 0.4976 0.4976 0 9.69868e-05 9.69868e-05 3.0194e-05 21.8825 3096.33 4036.28 
1086 0.51 0.51 0 0.000116186 0.000116186 1.95117e-05 22.4814 3179.32 4200.18 
1126 0.4862 0.4862 0 0.000108329 0.000108329 -1.64609e-06 21.1752 3080.04 4024.18 
1166 0.4344 0.4344 0 0.000164492 0.000164492 6.95137e-06 18.9551 2970.8 4061.97 
1206 0.418 0.418 0 0.000242067 0.000242067 5.99156e-06 18.3433 3056.81 4016.52 
1246 0.374 0.374 0 0.000371377 0.000371377 2.77724e-05 15.4097 2644.96 3473.77 
7 0.1606 0.1606 0 0.000573886 0.000573886 1.35259e-06 66.2279 11635.8 16140.4 
47 8.7884 8.7884 0 0.0364775 0.0364775 -0.000149332 367.4 24684.1 34607 
87 9.8372 9.8372 0 0.0403014 0.0403014 4.67184e-06 407.394 25489.7 35360.6 
127 10.3452 10.3452 0 0.0422955 0.0422955 -0.000167402 428.012 24953.5 34922.5 
167 10.5876 10.5876 0 0.0431372 0.0431372 -1.80275e-06 437.019 24799.3 34635.1 
207 10.652 10.652 0 0.0433565 0.0433565 0.000108213 439.934 26635.8 37503.9 
247 10.5002 10.5002 0 0.0428954 0.0428954 2.00507e-05 436.337 27441.7 38693.3 
287 9.8068 9.8068 0 0.0406738 0.0406738 -2.32839e-05 415.158 32434.6 45635.2 
327 0.1896 0.1896 0 0.00084213 0.00084213 2.48969e-06 86.7122 18567.8 27488.4 
367 1.0824 1.0824 0 0.00193874 0.00193874 6.75774e-05 49.1169 8260.41 11557.4 
407 1.3616 1.3616 0 0.0019666 0.0019666 -2.21475e-05 61.1023 8639.36 11886.8 
447 1.5248 1.5248 0 0.00207239 0.00207239 5.53096e-05 67.733 8331.42 11449.5 
487 1.571 1.571 0 0.00207291 0.00207291 -2.49413e-07 68.1532 8181.26 11282.5 
527 1.5892 1.5892 0 0.00200705 0.00200705 1.6943e-05 69.203 7545.43 11036.1 
567 1.5888 1.5888 0 0.00199095 0.00199095 -4.86478e-05 69.3107 7322.12 10219.6 
607 1.4286 1.4286 0 0.00196992 0.00196992 -3.64481e-07 61.8222 7023.89 9689 
647 0.0114 0.0114 0 -2.13206e-05 -2.13206e-05 1.7702e-06 4.03791 411.309 692.41 
687 0.0826 0.0826 0 -0.000304077 -0.000304077 -1.27496e-05 3.11639 273.324 427.846 
727 0.1326 0.1326 0 -0.00055662 -0.00055662 6.23249e-06 5.61608 484.1 708.787 
767 0.176 0.176 0 -0.000733652 -0.000733652 2.08727e-05 7.3582 631.752 907.234 
807 0.2046 0.2046 0 -0.000863671 -0.000863671 2.8921e-05 8.67868 706.069 1070.42 
847 0.2088 0.2088 0 -0.000858822 -0.000858822 -1.31221e-06 8.74928 746.154 1035.6 
887 0.2014 0.2014 0 -0.000853595 -0.000853595 6.71318e-06 8.75453 686.556 1020.16 
927 0.1416 0.1416 0 -0.00056187 -0.00056187 8.56148e-06 5.83663 493.549 733.842 
967 0.0278 0.0278 0 1.41298e-06 1.41298e-06 9.54271e-06 12.1344 2375.59 2886.19 
1007 0.485 0.485 0 0.000100687 0.000100687 2.76982e-05 21.2327 2981.27 3963.37 
1047 0.5012 0.5012 0 6.76224e-05 6.76224e-05 1.59561e-05 22.0883 3203.98 4238.53 
1087 0.4746 0.4746 0 5.55787e-05 5.55787e-05 4.82636e-06 21.0636 2728.12 3754.49 
1127 0.4922 0.4922 0 0.000154845 0.000154845 -3.76534e-05 21.7512 3077.98 3985.52 
1167 0.458 0.458 0 0.000197994 0.000197994 -7.65634e-06 20.1273 3215.82 4175.23 
1207 0.4226 0.4226 0 0.000262543 0.000262543 1.80573e-05 18.6281 2916.01 3771.83 
1247 0.373 0.373 0 0.000350413 0.000350413 -1.20092e-05 15.2973 2485.07 3347.1 
8 0.1834 0.1834 0 0.000692276 0.000692276 -9.4073e-06 76.7844 12543.3 16374.9 
48 8.8892 8.8892 0 0.0367624 0.0367624 7.79486e-05 370.063 24513.6 34661.7 
88 9.979 9.979 0 0.0407249 0.0407249 -7.39755e-06 411.464 25549.6 35480.1 
128 10.3726 10.3726 0 0.0424188 0.0424188 4.185e-05 429.304 27094.3 38295.3 
168 10.6908 10.6908 0 0.0434049 0.0434049 8.70481e-05 439.867 24827.3 35074.6 
208 10.6802 10.6802 0 0.0434857 0.0434857 6.68949e-05 441.542 27272.2 37550 
248 10.4406 10.4406 0 0.0428844 0.0428844 0.000143424 436.232 28241.7 39767.4 
288 9.7402 9.7402 0 0.0402987 0.0402987 -2.42325e-06 411.522 31061.8 44111.8 
328 0.1666 0.1666 0 0.000700496 0.000700496 -2.2328e-05 75.2861 15993.1 21780 
368 1.1164 1.1164 0 0.00205146 0.00205146 -8.30985e-05 50.6935 9043.63 12251.1 
408 1.3626 1.3626 0 0.00201219 0.00201219 -1.27939e-05 61.2922 9114.63 12317.8 
448 1.477 1.477 0 0.00204988 0.00204988 8.60793e-06 64.7943 8280.83 11566.8 
488 1.5446 1.5446 0 0.00205445 0.00205445 -3.93101e-05 67.988 7900.27 10917.1 
528 1.6136 1.6136 0 0.00204108 0.00204108 3.05095e-05 69.5566 7787.75 10659.8 
568 1.5792 1.5792 0 0.00195501 0.00195501 3.21219e-05 68.2048 6777.4 9794.95 
608 1.4642 1.4642 0 0.00202143 0.00202143 2.29521e-05 63.3969 6528.25 9002.88 
648 0.0094 0.0094 0 -2.08481e-05 -2.08481e-05 -4.36134e-06 3.51017 313.716 568.279 
688 0.0816 0.0816 0 -0.000309178 -0.000309178 -7.51745e-06 3.14635 282.078 405.652 
728 0.1296 0.1296 0 -0.000537322 -0.000537322 -1.45599e-05 5.44019 537.441 728.654 
768 0.1858 0.1858 0 -0.00077846 -0.00077846 -6.4527e-06 7.87061 679.839 926.886 
808 0.2026 0.2026 0 -0.000850287 -0.000850287 -1.56441e-05 8.62484 654.897 951.115 
848 0.2228 0.2228 0 -0.000939551 -0.000939551 1.52512e-05 9.57325 713.34 1095.69 
888 0.1942 0.1942 0 -0.000809277 -0.000809277 -1.97019e-05 8.25436 676.378 1070.05 
928 0.1304 0.1304 0 -0.000509553 -0.000509553 7.5218e-06 5.30409 310.172 562.494 
968 0.0304 0.0304 0 1.11341e-05 1.11341e-05 -1.82725e-06 13.9562 2917.6 3615.35 
1008 0.4822 0.4822 0 0.000117271 0.000117271 3.43936e-05 20.9924 3061.39 4011.9 
1048 0.5118 0.5118 0 6.91346e-05 6.91346e-05 -6.10112e-05 22.6652 2989 3853.01 
1088 0.5142 0.5142 0 0.000117889 0.000117889 2.65124e-05 22.5433 3118.34 4156.63 
1128 0.4764 0.4764 0 0.000158774 0.000158774 8.0401e-06 20.8617 2830.81 3793.15 
1168 0.465 0.465 0 0.000174046 0.000174046 1.6712e-05 20.3282 3044.43 3931.29 
1208 0.4068 0.4068 0 0.000199544 0.000199544 2.16395e-06 17.6441 2748.29 3566.13 
1248 0.3686 0.3686 0 0.000317796 0.000317796 2.14141e-05 15.1535 2336.24 3196.66 
9 0.2324 0.2324 0 0.000939793 0.000939793 2.23228e-05 98.1727 16028.4 22167.6 
49 8.965 8.965 0 0.0372322 0.0372322 -9.78637e-05 374.906 26163.9 36675.9 
89 9.9578 9.9578 0 0.0406596 0.0406596 3.77975e-05 411.215 23722.2 33497.8 
129 10.3152 10.3152 0 0.0422745 0.0422745 -5.57635e-05 427.874 26058 36245.5 
169 10.6622 10.6622 0 0.0433047 0.0433047 7.24576e-05 439.188 25067.3 35426.6 
209 10.7542 10.7542 0 0.0437503 0.0437503 -0.000121673 444.096 25434.5 36276.4 
249 10.433 10.433 0 0.0430394 0.0430394 -4.86667e-05 438.169 31269.4 43535.5 
289 9.7894 9.7894 0 0.040598 0.040598 4.75997e-05 414.449 31636.5 44631.3 
329 0.1446 0.1446 0 0.000561666 0.000561666 -1.05277e-05 62.4607 12670.6 18818.5 
369 1.1086 1.1086 0 0.00200002 0.00200002 3.40835e-05 50.4872 8831.75 12055.5 
409 1.3942 1.3942 0 0.00206903 0.00206903 4.82203e-05 62.3033 8661.35 12176.3 
449 1.5502 1.5502 0 0.00214808 0.00214808 6.31367e-05 68.2218 8463.59 11873.3 
489 1.5648 1.5648 0 0.00209505 0.00209505 -3.3601e-05 69.4354 8010.2 11230.4 
529 1.5988 1.5988 0 0.00197835 0.00197835 -7.04265e-06 69.2485 7744.42 10781.2 
569 1.559 1.559 0 0.00208684 0.00208684 -9.06901e-06 66.8978 6972.47 9865.33 
609 1.392 1.392 0 0.00196597 0.00196597 -1.42866e-06 60.7014 6865.81 9394.42 
649 0.0056 0.0056 0 -1.14495e-05 -1.14495e-05 3.81224e-07 1.7409 333.032 452.08 
689 0.0794 0.0794 0 -0.000292163 -0.000292163 7.64703e-06 2.97933 236.503 375.374 
729 0.1404 0.1404 0 -0.000566718 -0.000566718 2.09025e-06 5.70899 418.06 645.051 
769 0.182 0.182 0 -0.000785082 -0.000785082 -1.03598e-05 7.89607 639.715 908.209 
809 0.2022 0.2022 0 -0.000856145 -0.000856145 2.95808e-06 8.65896 697.106 1031.54 
849 0.211 0.211 0 -0.000897963 -0.000897963 -9.20374e-06 9.12313 557.001 915.52 
889 0.2012 0.2012 0 -0.000843512 -0.000843512 -2.31897e-05 8.69403 746.742 1110.88 
929 0.1278 0.1278 0 -0.000521104 -0.000521104 1.63443e-06 5.36426 400.831 640.195 
969 0.0356 0.0356 0 2.73042e-05 2.73042e-05 -8.68756e-07 16.3647 3650.48 4302.56 
1009 0.4752 0.4752 0 0.000122427 0.000122427 1.67272e-06 21.0009 2869.58 3801.21 
1049 0.493 0.493 0 7.18864e-05 7.18864e-05 2.04556e-05 21.7474 2781.32 3792.08 
1089 0.4878 0.4878 0 0.000118378 0.000118378 -3.57943e-05 21.5035 3021.01 3961.25 
1129 0.495 0.495 0 0.000172741 0.000172741 -2.20417e-05 21.4305 3379.75 4437.39 
1169 0.4624 0.4624 0 0.000212457 0.000212457 -3.27788e-05 20.1595 3379.1 4283.15 
1209 0.4378 0.4378 0 0.000254999 0.000254999 6.43146e-06 18.9076 2958.85 3846.66 
1249 0.365 0.365 0 0.000345895 0.000345895 -1.08926e-05 14.8509 2389.61 3071.64 
10 0.2666 0.2666 0 0.00113773 0.00113773 -3.09461e-05 116.443 20319.7 25960 
50 8.8398 8.8398 0 0.0368943 0.0368943 5.23803e-05 371.385 27494.2 37685 
90 9.9606 9.9606 0 0.0405359 0.0405359 -3.32864e-05 409.932 23312.1 33266.2 
130 10.4126 10.4126 0 0.0425203 0.0425203 8.39708e-05 430.477 24741.4 35163 
170 10.548 10.548 0 0.0429812 0.0429812 -0.000110252 435.725 24756.2 35246.7 
210 10.7116 10.7116 0 0.0434442 0.0434442 2.99839e-05 441.173 24963.2 35057 
250 10.4868 10.4868 0 0.0430772 0.0430772 -1.53312e-05 438.243 30697.9 42144.9 
290 9.6186 9.6186 0 0.0400094 0.0400094 6.79054e-05 408.531 31931.6 45033.1 
330 0.1202 0.1202 0 0.000440554 0.000440554 -1.08189e-05 51.3113 10988.1 15522.2 
370 1.1318 1.1318 0 0.00195919 0.00195919 3.10761e-05 51.1679 8697.57 11804.6 
410 1.3954 1.3954 0 0.00201018 0.00201018 -4.31562e-05 62.1699 8108.59 11409.2 
450 1.498 1.498 0 0.00199497 0.00199497 -5.8658e-05 65.7174 8084.31 11308.8 
490 1.576 1.576 0 0.00207325 0.00207325 3.27476e-06 69.0511 8383.45 11547.3 
530 1.588 1.588 0 0.00200815 0.00200815 -4.89207e-05 68.8516 7192.62 10222.6 
570 1.5696 1.5696 0 0.00200056 0.00200056 2.44421e-05 67.4506 7414.69 10247.4 
610 1.405 1.405 0 0.00200524 0.00200524 1.1692e-05 61.0302 6552.95 9102.55 
650 0.0064 0.0064 0 -1.6153e-05 -1.6153e-05 1.05554e-07 1.95958 302.745 321.188 
690 0.085 0.085 0 -0.000317824 -0.000317824 6.31014e-06 3.26471 266.069 438.676 
730 0.1428 0.1428 0 -0.000590582 -0.000590582 1.6758e-05 5.95634 489.383 700.773 
770 0.1766 0.1766 0 -0.00073566 -0.00073566 2.31283e-05 7.38097 610.878 873.072 
810 0.2178 0.2178 0 -0.000942345 -0.000942345 -4.39664e-05 9.49935 797.042 1176.75 
850 0.212 0.212 0 -0.000882334 -0.000882334 8.53006e-06 9.01861 719.249 970.941 
890 0.1956 0.1956 0 -0.000834555 -0.000834555 -1.63534e-05 8.56841 743.553 1044.97 
930 0.1334 0.1334 0 -0.000527763 -0.000527763 3.27518e-06 5.46329 354.319 600.037 
970 0.0908 0.0908 0 6.98469e-05 6.98469e-05 8.46307e-06 16.0871 2486.93 3171.53 
1010 0.4892 0.4892 0 9.70516e-05 9.70516e-05 -1.05449e-05 21.0609 2779.33 3681.64 
1050 0.5144 0.5144 0 7.93781e-05 7.93781e-05 2.93961e-06 22.3806 2989.98 4038.11 
1090 0.4994 0.4994 0 7.08772e-05 7.08772e-05 -2.41806e-05 21.8745 3119.55 4090.59 
1130 0.4836 0.4836 0 0.000135645 0.000135645 9.2902e-06 21.1418 3121.26 4086.08 
1170 0.4572 0.4572 0 0.000212189 0.000212189 -2.51608e-05 19.9694 2977.56 3929.19 
1210 0.4258 0.4258 0 0.000239039 0.000239039 -3.13435e-05 18.4115 2838.72 3836.87 
1250 0.3628 0.3628 0 0.000331544 0.000331544 -1.79739e-05 14.8879 2376.41 3185.55 
11 0.3162 0.3162 0 0.00137415 0.00137415 1.04906e-05 137.585 20882.8 27893.2 
51 9.049 9.049 0 0.0377528 0.0377528 -5.06712e-05 379.79 27219.5 38076.7 
91 10.017 10.017 0 0.041022 0.041022 0.000171411 414.608 23759.7 33320.4 
131 10.4056 10.4056 0 0.0423693 0.0423693 -7.7363e-05 429.007 24570.2 34267.7 
171 10.631 10.631 0 0.0434866 0.0434866 2.31745e-05 441.02 27910.9 38684 
211 10.7426 10.7426 0 0.0437774 0.0437774 -4.98523e-05 444.713 25559.1 36374.2 
251 10.5208 10.5208 0 0.0430611 0.0430611 1.25664e-05 438.267 28270.7 39915.5 
291 9.6874 9.6874 0 0.040386 0.040386 -4.26797e-05 412.532 33803.7 47356.7 
331 0.1058 0.1058 0 0.00035603 0.00035603 -1.21964e-05 44.6412 8914.75 12281.8 
371 1.151 1.151 0 0.0020396 0.0020396 1.90346e-05 51.9272 8661.38 11790.2 
411 1.3844 1.3844 0 0.00208207 0.00208207 3.28116e-05 62.121 8860.39 12007.2 
451 1.4972 1.4972 0 0.00202165 0.00202165 2.92314e-05 66.0769 7693.35 10995.6 
491 1.574 1.574 0 0.00206102 0.00206102 1.05471e-05 69.0685 7992.78 10962.3 
531 1.6134 1.6134 0 0.00207077 0.00207077 -4.02558e-05 70.5456 7796.05 10613.5 
571 1.5638 1.5638 0 0.00189892 0.00189892 -5.89698e-06 67.8199 6773.1 9562.38 
611 1.3706 1.3706 0 0.00198727 0.00198727 3.56e-05 59.4365 6729.36 8970.73 
651 0.0044 0.0044 0 -1.21222e-05 -1.21222e-05 -7.73532e-07 1.41695 138.892 221.178 
691 0.0854 0.0854 0 -0.000336893 -0.000336893 2.06562e-05 3.40828 269.079 412.714 
731 0.144 0.144 0 -0.000609604 -0.000609604 1.58844e-05 6.13401 416.82 686.515 
771 0.1788 0.1788 0 -0.000715633 -0.000715633 2.97337e-06 7.23085 564.34 730.809 
811 0.2236 0.2236 0 -0.000946721 -0.000946721 1.57387e-06 9.57464 798.814 1235.16 
851 0.215 0.215 0 -0.000908536 -0.000908536 1.88881e-05 9.24559 709.667 1023.42 
891 0.1838 0.1838 0 -0.000766612 -0.000766612 -6.12621e-06 7.83887 626.176 923.204 
931 0.1218 0.1218 0 -0.000497459 -0.000497459 -1.38333e-05 5.13663 349.512 515.307 
971 0.0926 0.0926 0 7.55678e-05 7.55678e-05 6.05514e-06 16.881 3645.56 4467.8 
1011 0.492 0.492 0 9.00831e-05 9.00831e-05 -4.03393e-05 21.3052 2727.09 3604.57 
1051 0.5082 0.5082 0 4.7346e-05 4.7346e-05 3.73039e-06 22.4231 2997.9 4008.19 
1091 0.4932 0.4932 0 0.000139692 0.000139692 -6.20074e-06 21.7968 3343.84 4320.85 
1131 0.4824 0.4824 0 0.000144468 0.000144468 -4.04729e-05 21.1711 3257.32 4063.3 
1171 0.4648 0.4648 0 0.000192347 0.000192347 -1.40299e-05 20.3916 3223.06 4269.39 
1211 0.417 0.417 0 0.000239635 0.000239635 2.03113e-05 18.0027 2959.22 3698.07 
1251 0.3602 0.3602 0 0.000387534 0.000387534 -1.41814e-05 14.5833 2645 3551.76 
12 0.376 0.376 0 0.00171997 0.00171997 -3.15937e-05 168.641 27207 35878.1 
52 8.9288 8.9288 0 0.037225 0.037225 0.00016004 375.027 27058.8 37460.1 
92 9.9336 9.9336 0 0.0406577 0.0406577 -4.57778e-05 411.047 24796.2 35227.7 
132 10.4582 10.4582 0 0.0424623 0.0424623 8.59134e-05 430.135 23912.4 34044.1 
172 10.6088 10.6088 0 0.043414 0.043414 5.43353e-05 440.628 26799.3 37589.2 
212 10.7566 10.7566 0 0.0436479 0.0436479 0.000120536 442.963 24690.4 35449.7 
252 10.5168 10.5168 0 0.0428998 0.0428998 5.21452e-05 436.519 27617.2 38717.2 
292 9.6148 9.6148 0 0.0403121 0.0403121 -7.60698e-05 412.587 36135 50345.5 
332 0.0918 0.0918 0 0.000304432 0.000304432 6.87718e-06 37.9432 8592.31 13364.9 
372 1.1686 1.1686 0 0.00207265 0.00207265 -6.7538e-05 52.8053 9016.91 12245.5 
412 1.382 1.382 0 0.00214786 0.00214786 2.57745e-05 62.4531 9073.98 12543.4 
452 1.548 1.548 0 0.00207194 0.00207194 -1.51519e-05 68.7665 8742.86 11996.5 
492 1.561 1.561 0 0.0020313 0.0020313 -3.46195e-05 68.3706 7913.54 11163.6 
532 1.5866 1.5866 0 0.00205073 0.00205073 1.92832e-05 68.9675 7839.09 10796 
572 1.5906 1.5906 0 0.00203179 0.00203179 5.72548e-05 68.3766 7182.73 10140.5 
612 1.3714 1.3714 0 0.00196429 0.00196429 4.77933e-05 59.1858 6774.38 9536.4 
652 0.0084 0.0084 0 -2.52683e-05 -2.52683e-05 1.19795e-06 1.10498 11.0417 153.045 
692 0.0906 0.0906 0 -0.000349762 -0.000349762 1.30071e-05 3.5419 305.28 406.175 
732 0.1394 0.1394 0 -0.00058247 -0.00058247 -2.77665e-06 5.88248 575.129 824.808 
772 0.1884 0.1884 0 -0.000804671 -0.000804671 -6.50187e-06 8.1155 575.647 873.777 
812 0.2054 0.2054 0 -0.000845181 -0.000845181 -1.84048e-05 8.55608 718.206 1031.89 
852 0.2208 0.2208 0 -0.000928888 -0.000928888 3.3632e-05 9.49617 840.144 1218.57 