ITEM: TIMESTEP
25000
ITEM: NUMBER OF SURFS
1260
ITEM: BOX BOUNDS oo rr pp
0 0.3
0 0.3
-0.5 0.5
ITEM: SURFS id f_4[1] f_4[2] f_4[3] f_4[4] f_4[5] f_4[6] f_4[7] f_4[8] f_4[9] 
1 0.0034 0.0034 0 6.51374e-05 6.51374e-05 3.95363e-05 139.785 -5016.67 -1256.93 
41 9.4782 9.4782 0 0.388115 0.388115 0.00161474 3870.79 214276 309358 
81 10.5084 10.5084 0 0.425768 0.425768 -0.00145887 4246.32 192003 276612 
121 10.96 10.96 0 0.443319 0.443319 0.000460281 4421.36 189669 282285 
161 10.9294 10.9294 0 0.441294 0.441294 -0.000164361 4401.16 185743 269093 
201 10.8434 10.8434 0 0.437583 0.437583 0.000120156 4364.15 181434 270725 
241 10.6888 10.6888 0 0.431944 0.431944 -8.50908e-05 4307.91 194527 283524 
281 9.8894 9.8894 0 0.402861 0.402861 0.00100511 4017.86 207589 297955 
321 0.0266 0.0266 0 0.00108634 0.00108634 -3.62877e-05 1090.02 61865.1 87480.6 
361 0.4308 0.4308 0 0.00301172 0.00301172 -4.55052e-05 171.644 9071.04 12363.7 
401 0.591 0.591 0 0.00187347 0.00187347 0.000337091 232.065 8595 12133.9 
441 0.7088 0.7088 0 0.00193103 0.00193103 -0.000227194 282.212 11328.7 14950 
481 0.7918 0.7918 0 0.0012351 0.0012351 0.000382181 314.446 11731.1 14780.3 
521 0.8444 0.8444 0 0.00204343 0.00204343 -0.000124979 335.944 9803.21 13808.6 
561 0.8896 0.8896 0 0.00221546 0.00221546 -0.000117018 350.934 12627.4 16939.7 
601 0.8812 0.8812 0 0.00222999 0.00222999 7.24116e-05 349.855 10896.9 15331 
641 0.0008 0.0008 0 -1.64602e-05 -1.64602e-05 1.6911e-06 21.0965 643.049 402.814 
681 0.2268 0.2268 0 -0.00877571 -0.00877571 0.000100373 87.5229 1199.99 1950.65 
721 0.2468 0.2468 0 -0.00981289 -0.00981289 -5.57021e-06 97.8671 1767.85 3202.25 
761 0.2424 0.2424 0 -0.0096242 -0.0096242 -0.000109435 95.9852 4002.3 5534.44 
801 0.249 0.249 0 -0.0101136 -0.0101136 0.000190912 100.866 3539.02 4926.72 
841 0.2358 0.2358 0 -0.00966108 -0.00966108 -0.000116197 96.353 2603.96 3515.32 
881 0.235 0.235 0 -0.00910766 -0.00910766 1.53837e-05 90.8336 1694.31 1939.78 
921 0.2242 0.2242 0 -0.0086075 -0.0086075 6.19546e-05 85.8453 1030.37 1522.06 
961 0.0048 0.0048 0 4.4373e-05 4.4373e-05 -6.99004e-06 209.095 22367 35720.7 
1001 0.8878 0.8878 0 0.0019995 0.0019995 -0.000109439 354.389 10321.2 14196.6 
1041 0.8966 0.8966 0 0.00209005 0.00209005 -0.000300965 356.155 9869.87 13444.4 
1081 0.861 0.861 0 0.00181288 0.00181288 -0.0002186 340.74 9561.26 13440.9 
1121 0.781 0.781 0 0.00223214 0.00223214 -0.000180068 313.975 10469.8 14217 
1161 0.6766 0.6766 0 0.00198936 0.00198936 -0.00015986 268.232 10350.6 13926.6 
1201 0.5528 0.5528 0 0.00172841 0.00172841 -7.91231e-05 219.468 8628.3 12332.7 
1241 0.4088 0.4088 0 0.00351591 0.00351591 0.000149476 161.862 11600.8 13894.9 
2 0.0066 0.0066 0 0.000146629 0.000146629 3.71304e-06 231.884 441.891 12231.5 
42 9.5586 9.5586 0 0.391467 0.391467 6.86403e-05 3904.23 213571 303657 
82 10.401 10.401 0 0.422937 0.422937 0.000555797 4218.08 185655 277532 
122 10.8512 10.8512 0 0.438327 0.438327 0.0020703 4371.57 186511 270069 
162 10.9502 10.9502 0 0.439669 0.439669 0.000532004 4384.95 174914 259229 
202 10.9556 10.9556 0 0.441504 0.441504 -0.00163212 4403.26 191375 272930 
242 10.5016 10.5016 0 0.424693 0.424693 0.00130179 4235.6 191486 276872 
282 9.7786 9.7786 0 0.397721 0.397721 0.000353142 3966.6 200463 290911 
322 0.0216 0.0216 0 0.000791232 0.000791232 -1.1239e-05 834.423 68579.1 92378.8 
362 0.4304 0.4304 0 0.00297599 0.00297599 -3.70769e-05 176.23 8718.3 11976.1 
402 0.5786 0.5786 0 0.0020508 0.0020508 -0.000139217 229.362 10414.3 12150.3 
442 0.7136 0.7136 0 0.00212613 0.00212613 -0.000179121 282.692 9239.11 13926.5 
482 0.7996 0.7996 0 0.00185023 0.00185023 -0.000282335 315.046 10524 13975.4 
522 0.8534 0.8534 0 0.00208091 0.00208091 0.000229147 340.098 9962.79 13866 
562 0.8936 0.8936 0 0.00208836 0.00208836 2.68833e-05 351.549 10836.3 14294 
602 0.8488 0.8488 0 0.00244712 0.00244712 0.000398967 337.758 12143.7 15936.5 
642 0.0012 0.0012 0 -3.31108e-05 -3.31108e-05 1.96829e-06 43.1002 2092 249.087 
682 0.222 0.222 0 -0.00864576 -0.00864576 6.64554e-06 86.2269 2216.2 2591.22 
722 0.221 0.221 0 -0.00872792 -0.00872792 2.87721e-05 87.0463 2758.88 3583.7 
762 0.2414 0.2414 0 -0.00973613 -0.00973613 0.000240784 97.1015 4196.45 5550.18 
802 0.2594 0.2594 0 -0.0104091 -0.0104091 -8.30075e-05 103.814 4442.38 6252.7 
842 0.2368 0.2368 0 -0.00934877 -0.00934877 -3.08056e-06 93.2383 2622.26 3864.23 
882 0.2318 0.2318 0 -0.00927437 -0.00927437 -5.03005e-05 92.4962 1982.94 3259.6 
922 0.2204 0.2204 0 -0.00868686 -0.00868686 -0.000292009 86.6368 1695.65 1943.14 
962 0.5274 0.5274 0 0.00526941 0.00526941 5.90831e-05 209.68 13846.4 16545.2 
1002 0.856 0.856 0 0.00252179 0.00252179 -0.0001574 335.463 9562.69 12588.7 
1042 0.8828 0.8828 0 0.00171623 0.00171623 -1.11367e-05 346.397 10767.4 15251.3 
1082 0.8554 0.8554 0 0.00197308 0.00197308 0.000109592 337.766 10070.8 12516.7 
1122 0.7668 0.7668 0 0.00198262 0.00198262 -0.00029664 305.387 10948.8 13237.3 
1162 0.6788 0.6788 0 0.00149819 0.00149819 0.000127451 268.814 8548.55 12739.2 
1202 0.5558 0.5558 0 0.00226459 0.00226459 -0.000254058 220.627 9783.08 12744.5 
1242 0.4048 0.4048 0 0.00340517 0.00340517 0.000144557 159.675 9510.83 11919.7 
3 0.0058 0.0058 0 0.00015402 0.00015402 1.58919e-05 218.135 12836.7 20882.3 
43 9.4446 9.4446 0 0.387748 0.387748 -0.000550091 3867.13 206686 297674 
83 10.5068 10.5068 0 0.426207 0.426207 0.00106338 4250.7 186506 267561 
123 10.7944 10.7944 0 0.435437 0.435437 0.00136076 4342.75 187147 271785 
163 11.067 11.067 0 0.445084 0.445084 -0.00133754 4438.96 176197 263904 
203 10.877 10.877 0 0.437489 0.437489 0.00166329 4363.21 182569 272322 
243 10.6782 10.6782 0 0.431771 0.431771 0.000213049 4306.19 190248 277503 
283 9.7458 9.7458 0 0.397621 0.397621 -0.00110423 3965.6 205450 295716 
323 0.0182 0.0182 0 0.000748459 0.000748459 3.94949e-05 740.399 97065.4 128464 
363 0.4274 0.4274 0 0.00267375 0.00267375 0.000104055 170.768 9400.01 12315.6 
403 0.5958 0.5958 0 0.00217541 0.00217541 -0.000341134 234.148 9481.11 11527.9 
443 0.7154 0.7154 0 0.00184496 0.00184496 -0.000165569 284.303 9524.62 12018.8 
483 0.7884 0.7884 0 0.00166303 0.00166303 -0.000270705 312.765 8474.86 12796.2 
523 0.8622 0.8622 0 0.00216626 0.00216626 -0.00015707 339.618 10629.8 14677.3 
563 0.887 0.887 0 0.0021674 0.0021674 7.26173e-05 350.838 10769.4 14872.4 
603 0.8372 0.8372 0 0.00284477 0.00284477 0.0001859 332.729 11557.2 16807.8 
643 0.0002 0.0002 0 -7.61926e-06 -7.61926e-06 -1.30879e-06 6.34031 1228.61 1766.35 
683 0.2304 0.2304 0 -0.00892779 -0.00892779 0.000179642 89.0397 1404.13 2069.22 
723 0.2274 0.2274 0 -0.00897865 -0.00897865 -8.58584e-05 89.5469 2356.95 3484.18 
763 0.2262 0.2262 0 -0.00898438 -0.00898438 -5.69492e-05 89.6041 3873.51 5263.09 
803 0.2596 0.2596 0 -0.0104759 -0.0104759 -5.33427e-06 104.48 3517.35 5445.25 
843 0.2306 0.2306 0 -0.00920168 -0.00920168 4.03576e-05 91.7713 2647.05 4442.8 
883 0.2264 0.2264 0 -0.00890593 -0.00890593 7.97495e-05 88.8217 2777.89 3014.67 
923 0.2168 0.2168 0 -0.00854957 -0.00854957 9.14326e-05 85.2676 2206.11 2839.78 
963 0.5578 0.5578 0 0.00459328 0.00459328 0.00025826 221.573 10806.3 13948.6 
1003 0.8944 0.8944 0 0.00265653 0.00265653 -0.000130088 354.179 10816.5 15157.8 
1043 0.8806 0.8806 0 0.00209408 0.00209408 1.87141e-05 348.196 12171.4 16783.9 
1083 0.8438 0.8438 0 0.00223037 0.00223037 4.63818e-05 338.068 11416.3 15712.3 
1123 0.7722 0.7722 0 0.00203062 0.00203062 -6.326e-05 304.631 10672.9 15103.9 
1163 0.6716 0.6716 0 0.00194665 0.00194665 0.000162319 268.892 10439 13395 
1203 0.5336 0.5336 0 0.00207248 0.00207248 0.000242743 213.885 8259.69 11223.6 
1243 0.393 0.393 0 0.00360772 0.00360772 -0.000115165 156.68 8776.86 11664.1 
4 0.0108 0.0108 0 0.000246767 0.000246767 -2.51297e-06 421.526 31654.7 40550.5 
44 9.4978 9.4978 0 0.38952 0.38952 -9.30205e-05 3884.81 209846 302303 
84 10.5232 10.5232 0 0.426057 0.426057 -0.000898073 4249.2 194120 278122 
124 10.8886 10.8886 0 0.440774 0.440774 0.000318164 4395.98 188921 274637 
164 11.044 11.044 0 0.446413 0.446413 0.000354104 4452.22 181972 267815 
204 11.0312 11.0312 0 0.445619 0.445619 0.00101187 4444.3 184924 272970 
244 10.54 10.54 0 0.427019 0.427019 -0.00118747 4258.79 192464 281614 
284 9.6684 9.6684 0 0.394993 0.394993 0.00141926 3939.39 201450 293672 
324 0.0126 0.0126 0 0.000457514 0.000457514 -2.30556e-05 521.335 24175.2 40580.6 
364 0.4522 0.4522 0 0.00224833 0.00224833 0.000272895 179.267 8515.34 11813.4 
404 0.6034 0.6034 0 0.00224614 0.00224614 0.000230804 237.655 8587.75 11346.5 
444 0.7132 0.7132 0 0.00212861 0.00212861 -8.13855e-05 283.889 13019.9 16565.4 
484 0.8306 0.8306 0 0.00136989 0.00136989 3.12495e-05 329.728 11032.3 14413.9 
524 0.8654 0.8654 0 0.00191688 0.00191688 8.25494e-05 343.162 9665.2 13438 
564 0.8796 0.8796 0 0.00210166 0.00210166 2.31354e-05 347.701 13030.3 17183.9 
604 0.8614 0.8614 0 0.00293246 0.00293246 -2.24752e-05 340.739 12755.1 17205.9 
644 0.001 0.001 0 -1.829e-05 -1.829e-05 -1.8076e-07 18.7013 -720.048 -865.473 
684 0.22 0.22 0 -0.00877945 -0.00877945 -0.000169657 87.5603 440.396 1091.23 
724 0.2326 0.2326 0 -0.00913988 -0.00913988 -1.33294e-05 91.1549 2190.38 3085.78 
764 0.2402 0.2402 0 -0.00953621 -0.00953621 -0.000122147 95.1076 3903.61 4886.66 
804 0.2522 0.2522 0 -0.0100325 -0.0100325 4.48525e-05 100.057 2781.01 4049.38 
844 0.2344 0.2344 0 -0.00937209 -0.00937209 7.3955e-05 93.4708 1898.27 2138.96 
884 0.2354 0.2354 0 -0.00925543 -0.00925543 1.94791e-05 92.3073 2666.81 4067.43 
924 0.2176 0.2176 0 -0.00846328 -0.00846328 -1.32702e-07 84.407 1656.23 1631.6 
964 0.5812 0.5812 0 0.00456469 0.00456469 -1.8483e-05 233.221 12587 14877 
1004 0.8662 0.8662 0 0.00205669 0.00205669 4.4901e-06 341.899 9896.44 13251.9 
1044 0.9152 0.9152 0 0.00258487 0.00258487 7.63547e-05 365.503 12111.2 16289.1 
1084 0.8508 0.8508 0 0.00216419 0.00216419 0.000104089 337.217 8932.35 13559 
1124 0.7686 0.7686 0 0.00169047 0.00169047 -0.000111232 306.156 10183.9 13698.1 
1164 0.6804 0.6804 0 0.00192446 0.00192446 0.000340824 272.518 11812.1 14780.6 
1204 0.5054 0.5054 0 0.0018737 0.0018737 -0.000282352 202.706 8466.75 11443.1 
1244 0.3938 0.3938 0 0.00325872 0.00325872 0.000251107 155.589 11296.9 14074.2 
5 0.0132 0.0132 0 0.000367673 0.000367673 -8.63012e-05 491.446 47393.1 67335.3 
45 9.6306 9.6306 0 0.39262 0.39262 -0.000752811 3915.72 205032 299304 
85 10.5008 10.5008 0 0.424551 0.424551 0.000438463 4234.18 182912 265907 
125 10.8442 10.8442 0 0.43617 0.43617 -0.00158552 4350.06 187150 272951 
165 10.9474 10.9474 0 0.440678 0.440678 -0.000869365 4395.02 177502 263840 
205 10.7816 10.7816 0 0.436256 0.436256 0.000931931 4350.92 190401 270563 
245 10.5654 10.5654 0 0.428891 0.428891 0.000178867 4277.46 183058 271057 
285 9.699 9.699 0 0.395157 0.395157 0.00050315 3941.02 205420 296480 
325 0.0142 0.0142 0 0.000476226 0.000476226 -3.63148e-06 556.429 39346.1 57803.5 
365 0.4424 0.4424 0 0.00254306 0.00254306 0.000156724 175.955 7154.23 9075.4 
405 0.5778 0.5778 0 0.00186257 0.00186257 0.000280598 233.529 7338.39 10315.5 
445 0.725 0.725 0 0.00213018 0.00213018 5.9185e-05 289.456 9777.27 14303.3 
485 0.8024 0.8024 0 0.00195053 0.00195053 5.25585e-05 318.652 10027.5 14958.8 
525 0.8678 0.8678 0 0.00199585 0.00199585 -0.000224328 343.284 9042 14099.5 
565 0.9148 0.9148 0 0.0017864 0.0017864 -0.00010295 363.44 10750.6 14957.4 
605 0.8402 0.8402 0 0.00240817 0.00240817 -0.000369152 334.93 11700.1 15577.4 
645 0.0004 0.0004 0 -1.81366e-05 -1.81366e-05 3.37533e-06 18.7708 1712.78 2686.07 
685 0.2294 0.2294 0 -0.00891877 -0.00891877 -4.52128e-07 88.9497 1366.4 1132.21 
725 0.2322 0.2322 0 -0.0090055 -0.0090055 -2.30642e-05 89.8147 1889.66 2215.48 
765 0.2408 0.2408 0 -0.00984965 -0.00984965 0.000147755 98.2337 3106.57 4387.35 
805 0.2448 0.2448 0 -0.00980646 -0.00980646 3.97123e-05 97.8029 3076.52 4708.6 
845 0.2194 0.2194 0 -0.00869499 -0.00869499 -0.000100117 86.7178 3005.31 4082.52 
885 0.2178 0.2178 0 -0.00873707 -0.00873707 -9.23742e-06 87.1375 1444.04 1336.42 
925 0.2152 0.2152 0 -0.00837439 -0.00837439 3.29388e-05 83.5204 1867.95 2138.66 
965 0.6258 0.6258 0 0.00416277 0.00416277 -5.44244e-05 249.606 11073.9 14613.1 
1005 0.9032 0.9032 0 0.00208058 0.00208058 -0.000201774 355.859 13355.8 17357.5 
1045 0.8824 0.8824 0 0.00197031 0.00197031 -1.8596e-05 345.904 9425.44 13144 
1085 0.833 0.833 0 0.0015072 0.0015072 7.29781e-05 332.323 9976.04 13890.6 
1125 0.7898 0.7898 0 0.0019895 0.0019895 -8.94731e-05 311.022 9859.3 14249.8 
1165 0.6968 0.6968 0 0.00199064 0.00199064 -0.000448883 278.521 10170.4 14016.2 
1205 0.5334 0.5334 0 0.00236977 0.00236977 0.000189456 213.372 9191.18 11929.9 
1245 0.4102 0.4102 0 0.00441268 0.00441268 -8.83696e-05 163.125 11720.7 14662.5 
6 0.0124 0.0124 0 0.000372946 0.000372946 3.95956e-05 457.405 26271.4 19843.2 
46 9.6638 9.6638 0 0.39564 0.39564 -0.000116946 3945.84 212586 307249 
86 10.627 10.627 0 0.429396 0.429396 0.00060284 4282.51 192032 280422 
126 10.8932 10.8932 0 0.43873 0.43873 -0.000375972 4375.6 188265 275189 
166 10.859 10.859 0 0.439436 0.439436 0.00110256 4382.63 174756 260380 
206 10.9562 10.9562 0 0.44144 0.44144 0.000507902 4402.63 178384 264698 
246 10.5452 10.5452 0 0.427079 0.427079 -0.000302213 4259.39 195402 288263 
286 9.593 9.593 0 0.393299 0.393299 -0.00129689 3922.49 208273 299331 
326 0.014 0.014 0 0.000439575 0.000439575 -4.95759e-05 562.302 41596.6 48612.4 
366 0.4392 0.4392 0 0.0025298 0.0025298 -2.35406e-05 175.426 8228.98 10332.7 
406 0.588 0.588 0 0.00218343 0.00218343 -6.70631e-05 231.953 8757.27 12130.6 
446 0.7114 0.7114 0 0.00154024 0.00154024 6.79071e-05 282.196 9055.09 12570.7 
486 0.8168 0.8168 0 0.00176368 0.00176368 -0.0001763 325.243 10567.7 14093.9 
526 0.888 0.888 0 0.00165956 0.00165956 0.000166101 350.74 8856.25 13457.5 
566 0.891 0.891 0 0.00194471 0.00194471 -0.000300732 353.237 10396.6 14758.5 
606 0.8372 0.8372 0 0.00236626 0.00236626 0.000370208 331.487 11502.8 15075.7 
646 0.001 0.001 0 -2.32301e-05 -2.32301e-05 -3.27399e-06 24.81 -427.522 -5937.08 
686 0.236 0.236 0 -0.00920746 -0.00920746 -0.000114249 91.8289 1673.4 2214.79 
726 0.226 0.226 0 -0.00874997 -0.00874997 -1.62885e-06 87.2662 2658.96 2899.74 
766 0.25 0.25 0 -0.0101137 -0.0101137 -8.27734e-05 100.867 4351.87 6084.72 
806 0.268 0.268 0 -0.0106457 -0.0106457 -4.27427e-06 106.173 3367.12 4975.47 
846 0.2448 0.2448 0 -0.0096793 -0.0096793 0.00013176 96.5347 1947.31 2831.48 
886 0.2258 0.2258 0 -0.00876379 -0.00876379 -7.62698e-05 87.404 1902.73 2148.94 
926 0.2118 0.2118 0 -0.00826816 -0.00826816 -3.78138e-05 82.461 784.207 1250.92 
966 0.6332 0.6332 0 0.0039827 0.0039827 0.000145001 253.594 11325.6 15366.3 
1006 0.896 0.896 0 0.00204997 0.00204997 2.5342e-06 353.104 12903.1 16017.7 
1046 0.8898 0.8898 0 0.00202079 0.00202079 0.00026153 353.304 10443.1 14576.5 
1086 0.836 0.836 0 0.00201637 0.00201637 -0.00016238 328.925 10297.8 14130.8 
1126 0.7934 0.7934 0 0.00159786 0.00159786 0.000251954 314.047 10149.3 12313.6 
1166 0.66 0.66 0 0.00157509 0.00157509 -0.000130203 263.839 8057.93 11646 
1206 0.5396 0.5396 0 0.00215393 0.00215393 0.000160458 213.548 8191.24 11343.8 
1246 0.3964 0.3964 0 0.0035452 0.0035452 0.000400408 156.191 10827.8 12713.2 
7 0.0146 0.0146 0 0.00051367 0.00051367 -3.64715e-05 609.691 80866.3 89278.2 
47 9.6658 9.6658 0 0.395418 0.395418 0.00087052 3943.63 207794 301570 
87 10.4614 10.4614 0 0.421742 0.421742 0.000376174 4206.16 185883 270856 
127 10.8708 10.8708 0 0.438387 0.438387 -0.00104347 4372.17 185416 266533 
167 10.972 10.972 0 0.441925 0.441925 -0.000853082 4407.46 177480 262164 
207 11.0486 11.0486 0 0.446913 0.446913 -0.00161765 4457.2 188114 278580 
247 10.7162 10.7162 0 0.435508 0.435508 0.000154373 4343.45 192482 282880 
287 9.6758 9.6758 0 0.395891 0.395891 -0.000580825 3948.35 204037 297205 
327 0.0094 0.0094 0 0.000302861 0.000302861 -9.14454e-07 376.146 44140.9 68790 
367 0.4524 0.4524 0 0.0024813 0.0024813 -0.000366895 181.96 8755.19 12228.3 
407 0.597 0.597 0 0.00199255 0.00199255 0.000174121 239.297 9894.05 13576.4 
447 0.7186 0.7186 0 0.00171148 0.00171148 -0.000271431 285.869 8933.14 12671.8 
487 0.7914 0.7914 0 0.00161912 0.00161912 -0.000137751 312.868 10764.3 15102.9 
527 0.887 0.887 0 0.00168075 0.00168075 -0.00036211 351.734 10774.3 15164.8 
567 0.8946 0.8946 0 0.00216809 0.00216809 4.95828e-05 356.252 12246.2 17187.8 
607 0.8166 0.8166 0 0.00253468 0.00253468 4.50052e-05 324.48 11579.8 16264.8 
647 0.0578 0.0578 0 -0.00204641 -0.00204641 -0.000130231 20.4095 -23.5647 179.09 
687 0.2308 0.2308 0 -0.00885385 -0.00885385 2.81909e-05 88.3022 995.812 2217.07 
727 0.2368 0.2368 0 -0.0092082 -0.0092082 0.000224781 91.8363 526.844 1112.53 
767 0.2462 0.2462 0 -0.00961118 -0.00961118 0.000195384 95.8554 2224.65 3461.93 
807 0.2516 0.2516 0 -0.00994552 -0.00994552 7.38172e-05 99.1898 3483.56 4675.15 
847 0.2202 0.2202 0 -0.00873534 -0.00873534 1.52659e-05 87.1203 2427.34 3419.09 
887 0.2278 0.2278 0 -0.00880264 -0.00880264 -0.000236165 87.7915 1850.87 2897.2 
927 0.2176 0.2176 0 -0.00848 -0.00848 -0.00019202 84.5738 996.256 1489.99 
967 0.657 0.657 0 0.00356037 0.00356037 0.000612784 265.622 10941.8 13802.9 
1007 0.88 0.88 0 0.00184873 0.00184873 0.000203289 347.782 10816.2 13706.7 
1047 0.889 0.889 0 0.00209655 0.00209655 0.000198151 350.603 11997.6 16009.9 
1087 0.8344 0.8344 0 0.00127847 0.00127847 0.000207679 331.381 9369.74 13410.3 
1127 0.7562 0.7562 0 0.00161669 0.00161669 0.000212095 303.445 9690.26 13815.6 
1167 0.644 0.644 0 0.00167294 0.00167294 0.000141868 253.365 8573.9 12084 
1207 0.5128 0.5128 0 0.0020358 0.0020358 0.000249046 204.126 9142.9 11698.6 
1247 0.3748 0.3748 0 0.00376537 0.00376537 -0.000142611 151.374 9979.46 13229.1 
8 0.0164 0.0164 0 0.000609439 0.000609439 -4.11636e-05 625.094 45304.6 71689.9 
48 9.9008 9.9008 0 0.403342 0.403342 0.000662493 4022.66 213793 306915 
88 10.7254 10.7254 0 0.433968 0.433968 -0.00086532 4328.1 190624 272554 
128 10.991 10.991 0 0.443484 0.443484 -0.00013556 4423.01 185878 271900 
168 10.9952 10.9952 0 0.442283 0.442283 -7.33896e-05 4411.03 183948 267758 
208 10.8092 10.8092 0 0.435518 0.435518 0.000509057 4343.56 176387 265698 
248 10.4502 10.4502 0 0.422161 0.422161 -0.000873774 4210.35 192670 275625 
288 9.6408 9.6408 0 0.394232 0.394232 0.00196657 3931.8 210989 303704 
328 0.012 0.012 0 0.000335498 0.000335498 4.16629e-05 452.011 38809.8 46765.8 
368 0.4564 0.4564 0 0.0025129 0.0025129 -0.000173746 184.004 7945.76 10830.9 
408 0.6154 0.6154 0 0.00193028 0.00193028 -0.000355647 247.26 8847.12 12897.4 
448 0.7122 0.7122 0 0.00192111 0.00192111 0.000342673 285.427 9854.69 14342.4 
488 0.815 0.815 0 0.00155308 0.00155308 -0.000113712 321.972 10536.1 14546.3 
528 0.8716 0.8716 0 0.00224365 0.00224365 -0.000244423 339.795 13206 18443.8 
568 0.8988 0.8988 0 0.00192224 0.00192224 0.000449519 357.041 9349.45 12880 
608 0.8732 0.8732 0 0.00283663 0.00283663 -3.96886e-05 348.736 13509.1 18110.9 
648 0.0878 0.0878 0 -0.00320834 -0.00320834 -1.90334e-05 31.9978 -209.899 33.6868 
688 0.225 0.225 0 -0.0086399 -0.0086399 -4.26341e-06 86.1685 1182.8 1736.34 
728 0.2228 0.2228 0 -0.008818 -0.008818 -0.000116756 87.9447 2523.7 4012.34 
768 0.2464 0.2464 0 -0.00981719 -0.00981719 -9.88865e-05 97.9099 3082.58 4852.84 
808 0.2466 0.2466 0 -0.00990887 -0.00990887 -6.54534e-05 98.8243 4118.63 5553.44 
848 0.2414 0.2414 0 -0.00967445 -0.00967445 3.3781e-05 96.4863 2220.38 2855.81 
888 0.228 0.228 0 -0.00886627 -0.00886627 0.000100911 88.4261 2012.1 2858.96 
928 0.2108 0.2108 0 -0.00815879 -0.00815879 0.000101974 81.3702 1663.14 2683.8 
968 0.7124 0.7124 0 0.00375324 0.00375324 -9.23231e-06 287.113 11962.4 16447.4 
1008 0.8798 0.8798 0 0.00245841 0.00245841 0.000280456 349.394 10850.8 15745.9 
1048 0.904 0.904 0 0.00191154 0.00191154 -0.000430399 359.062 11953 15669.3 
1088 0.857 0.857 0 0.00227379 0.00227379 6.6376e-05 338.633 8888.04 12336.8 
1128 0.7714 0.7714 0 0.00142671 0.00142671 -0.000102743 307.012 8890.47 12866.9 
1168 0.6722 0.6722 0 0.00188579 0.00188579 0.000270351 267.944 11033.2 14634.3 
1208 0.5178 0.5178 0 0.00242658 0.00242658 0.000296967 206.964 8612.75 11875.8 
1248 0.3894 0.3894 0 0.00414064 0.00414064 -0.000236209 156.634 10819.5 13209.9 
9 0.0234 0.0234 0 0.000936566 0.000936566 2.98968e-05 925.318 83882.3 93560.3 
49 9.696 9.696 0 0.39645 0.39645 -0.00104203 3953.92 208676 298759 
89 10.5542 10.5542 0 0.426596 0.426596 -0.000335728 4254.57 187578 269955 
129 10.8428 10.8428 0 0.436768 0.436768 0.000146808 4356.02 177120 263682 
169 10.9202 10.9202 0 0.440325 0.440325 0.000393196 4391.5 186075 269846 
209 10.9304 10.9304 0 0.440984 0.440984 -0.000204586 4398.07 189130 272906 
249 10.4836 10.4836 0 0.426655 0.426655 0.000384945 4255.17 194541 279865 
289 9.4104 9.4104 0 0.386127 0.386127 0.000264837 3850.97 203916 297055 
329 0.0074 0.0074 0 0.000181878 0.000181878 1.42989e-05 254.014 38403.1 45530.1 
369 0.4518 0.4518 0 0.00218604 0.00218604 -5.35286e-05 180.175 8529.81 10621.6 
409 0.6034 0.6034 0 0.00151063 0.00151063 8.12157e-05 240.086 8598.52 11870.4 
449 0.7338 0.7338 0 0.00146818 0.00146818 -7.7681e-05 288.975 9007.16 12627.8 
489 0.8022 0.8022 0 0.00209388 0.00209388 -0.000163035 318.88 10528.1 14696 
529 0.858 0.858 0 0.00211224 0.00211224 0.00044425 343.485 11909.9 17832.7 
569 0.89 0.89 0 0.00161431 0.00161431 0.000176456 355.518 12275.9 17089.5 
609 0.8262 0.8262 0 0.00295772 0.00295772 -5.73953e-05 330.514 11515 15078.3 
649 0.106 0.106 0 -0.00393833 -0.00393833 -6.81699e-05 39.2782 400.313 802.121 
689 0.232 0.232 0 -0.00896735 -0.00896735 9.64829e-05 89.4342 1514.13 1725.47 
729 0.2292 0.2292 0 -0.00909657 -0.00909657 7.33128e-05 90.723 2580.24 2861.83 
769 0.239 0.239 0 -0.00983606 -0.00983606 0.000150158 98.0981 3628.64 5266.3 
809 0.2474 0.2474 0 -0.00982495 -0.00982495 3.63616e-05 97.9873 2833.7 4625.53 
849 0.2196 0.2196 0 -0.0087779 -0.0087779 -0.00014782 87.5448 2738.18 4094.76 
889 0.2292 0.2292 0 -0.00904473 -0.00904473 7.32324e-05 90.2059 1734.36 2394.49 
929 0.2078 0.2078 0 -0.00812332 -0.00812332 -0.000120266 81.0164 630.325 937.293 
969 0.6832 0.6832 0 0.00331941 0.00331941 -0.000205388 276.36 11777.3 14799.7 
1009 0.8826 0.8826 0 0.00247301 0.00247301 0.000116862 352.603 13159.1 16679 
1049 0.902 0.902 0 0.00158069 0.00158069 6.0346e-05 358.031 11750.2 15527.1 
1089 0.8338 0.8338 0 0.00186348 0.00186348 2.28462e-05 328.589 9529.9 14033.9 
1129 0.7404 0.7404 0 0.00190748 0.00190748 0.000161217 294.95 11468.4 14099.7 
1169 0.653 0.653 0 0.00227058 0.00227058 -0.00025384 261.447 9840.82 13407.8 
1209 0.5178 0.5178 0 0.00213917 0.00213917 -0.000549988 208.7 9260.79 13258.5 
1249 0.3684 0.3684 0 0.00406855 0.00406855 5.39054e-05 143.912 10592.5 11865.9 
10 0.0224 0.0224 0 0.000895138 0.000895138 -4.60261e-05 868.338 116495 159921 
50 9.7814 9.7814 0 0.40051 0.40051 0.000333358 3994.42 199882 292133 
90 10.5008 10.5008 0 0.42443 0.42443 0.00130328 4232.97 186660 268863 
130 11.033 11.033 0 0.44413 0.44413 -0.000498075 4429.45 184424 269489 
170 11.0446 11.0446 0 0.444883 0.444883 -0.00185499 4436.96 193204 278668 
210 10.9082 10.9082 0 0.441384 0.441384 -0.000565939 4402.07 191197 278595 
250 10.554 10.554 0 0.428123 0.428123 0.000203638 4269.81 195916 282646 
290 9.4866 9.4866 0 0.387434 0.387434 0.00114597 3864 210357 303007 
330 0.0068 0.0068 0 0.000136744 0.000136744 6.17041e-05 270.367 12573.2 8500.43 
370 0.4544 0.4544 0 0.0024397 0.0024397 0.000215968 182.915 9104.66 12571.7 
410 0.5962 0.5962 0 0.00160399 0.00160399 0.000124229 237.332 7559.6 11523.6 
450 0.7182 0.7182 0 0.00186281 0.00186281 -6.98021e-05 284.67 9506.43 14200.9 
490 0.8456 0.8456 0 0.00186521 0.00186521 5.22635e-05 332.387 10841 14675.1 
530 0.8906 0.8906 0 0.00183001 0.00183001 -3.83851e-05 352.217 12586.3 17451.2 
570 0.8692 0.8692 0 0.00204857 0.00204857 -2.68478e-05 349.778 11601.4 15928.8 
610 0.8362 0.8362 0 0.00268198 0.00268198 -0.000259224 331.242 10208.3 15136.3 
650 0.119 0.119 0 -0.00464246 -0.00464246 0.000131007 46.3007 693.279 662.425 
690 0.2232 0.2232 0 -0.00867804 -0.00867804 -4.56569e-05 86.5489 1373.02 1818.83 
730 0.2324 0.2324 0 -0.00931471 -0.00931471 -9.08918e-05 92.8986 2703.68 4317.78 
770 0.2454 0.2454 0 -0.0100669 -0.0100669 -1.47726e-05 100.401 2914.92 3832.86 
810 0.2366 0.2366 0 -0.00965556 -0.00965556 5.95202e-05 96.298 2533.74 3951.63 
850 0.2222 0.2222 0 -0.00884906 -0.00884906 8.90655e-05 88.2545 1999.49 3606.44 
890 0.2278 0.2278 0 -0.00865136 -0.00865136 -3.78694e-05 86.2828 1209.54 1721.48 
930 0.2086 0.2086 0 -0.00817313 -0.00817313 4.29344e-05 81.5133 1840.2 2089.37 
970 0.708 0.708 0 0.00328233 0.00328233 8.00893e-05 281.168 11434.9 15448.5 
1010 0.8692 0.8692 0 0.00202405 0.00202405 0.000502725 344.115 12497.7 17268.2 
1050 0.896 0.896 0 0.00172391 0.00172391 -7.69643e-05 352.648 11170.5 14984.4 
1090 0.8202 0.8202 0 0.00183669 0.00183669 5.96376e-05 327.615 10265.7 13339.4 
1130 0.773 0.773 0 0.00193851 0.00193851 -7.2214e-05 308.992 10446.3 14322.4 
1170 0.6554 0.6554 0 0.00191435 0.00191435 0.000410254 260.082 10427.5 13970 
1210 0.5222 0.5222 0 0.00216717 0.00216717 3.72173e-05 206.93 8403.34 10819.5 
1250 0.3896 0.3896 0 0.00445289 0.00445289 -0.000103892 153.907 11286.4 13946.6 
11 0.026 0.026 0 0.00112077 0.00112077 -1.27613e-05 1087.09 112087 165333 
51 9.7824 9.7824 0 0.399599 0.399599 -0.00101579 3985.33 208312 301491 
91 10.68 10.68 0 0.432146 0.432146 -0.00104112 4309.92 186442 266325 
131 10.923 10.923 0 0.440046 0.440046 -0.000449996 4388.72 189359 269953 
171 10.8908 10.8908 0 0.439658 0.439658 0.000708436 4384.85 179180 268325 
211 10.8316 10.8316 0 0.436821 0.436821 -0.00210521 4356.55 186745 272778 
251 10.4242 10.4242 0 0.420794 0.420794 0.000667067 4196.71 186701 274918 
291 9.421 9.421 0 0.386175 0.386175 0.00100492 3851.45 208336 296260 
331 0.0038 0.0038 0 7.85865e-05 7.85865e-05 -3.384e-06 123.925 7402.25 6025.91 
371 0.4572 0.4572 0 0.00246745 0.00246745 -0.0002931 181.184 8610.83 11470.5 
411 0.6144 0.6144 0 0.00235344 0.00235344 -0.000116986 243.653 8910.32 10949.2 
451 0.7612 0.7612 0 0.00177872 0.00177872 -0.000269418 300.069 9496.46 12312.3 
491 0.8214 0.8214 0 0.0016953 0.0016953 -0.000215552 325.557 8590.01 12708.6 
531 0.8736 0.8736 0 0.00201881 0.00201881 0.000235302 343.879 9665.62 12993.4 
571 0.898 0.898 0 0.00240132 0.00240132 6.16009e-05 360.521 10066.5 14125.9 
611 0.811 0.811 0 0.00287342 0.00287342 9.09613e-05 320.882 11759.7 17039.4 
651 0.1432 0.1432 0 -0.00552416 -0.00552416 7.54979e-05 55.0942 918.858 1650.52 
691 0.2342 0.2342 0 -0.00924376 -0.00924376 0.000178246 92.1909 1043.03 1873.83 
731 0.2248 0.2248 0 -0.0089068 -0.0089068 -1.44098e-05 88.8304 1874.1 2166.41 
771 0.2312 0.2312 0 -0.00919319 -0.00919319 0.000123988 91.6866 3971.3 4750.46 
811 0.2416 0.2416 0 -0.00961868 -0.00961868 0.000220949 95.9302 3204.01 4270.69 
851 0.2274 0.2274 0 -0.00912096 -0.00912096 -2.91325e-05 90.9663 2842.31 3832.01 
891 0.234 0.234 0 -0.00917516 -0.00917516 -5.97187e-05 91.5068 1564.13 2399.79 
931 0.2018 0.2018 0 -0.0076775 -0.0076775 3.26708e-06 76.5702 1170.02 1218.11 
971 0.7502 0.7502 0 0.00314436 0.00314436 4.90953e-05 299.046 11460.4 15637.6 
1011 0.8804 0.8804 0 0.00214878 0.00214878 -0.00042297 351.984 9611.91 12934.7 
1051 0.8574 0.8574 0 0.00216913 0.00216913 0.000304379 343.476 12569.5 16034.8 
1091 0.8086 0.8086 0 0.00169665 0.00169665 0.000238789 320.208 11169.2 13970.1 
1131 0.752 0.752 0 0.00220796 0.00220796 0.000203591 299.193 9420.11 12669.3 
1171 0.6694 0.6694 0 0.00182925 0.00182925 0.000163653 264.355 10745.4 14716.6 
1211 0.5164 0.5164 0 0.00223079 0.00223079 -9.1138e-05 206.201 9029.59 11638.2 
1251 0.4028 0.4028 0 0.00476561 0.00476561 0.00027078 157.941 12847.8 14661.1 
12 0.0338 0.0338 0 0.00144716 0.00144716 5.91536e-05 1458.38 182328 247119 
52 9.917 9.917 0 0.404251 0.404251 0.000977917 4031.72 206811 298613 
92 10.5156 10.5156 0 0.424921 0.424921 -0.000446227 4237.87 185443 267746 
132 10.8036 10.8036 0 0.435591 0.435591 0.00137604 4344.29 186820 268890 
172 10.9476 10.9476 0 0.442135 0.442135 0.000272681 4409.56 189297 268276 
212 10.7632 10.7632 0 0.43483 0.43483 -0.000368498 4336.69 182997 268534 
252 10.4652 10.4652 0 0.423839 0.423839 0.000399241 4227.08 194261 281662 
292 9.301 9.301 0 0.381069 0.381069 -0.00103532 3800.53 204328 295531 
332 0.3162 0.3162 0 0.00564607 0.00564607 -0.00021215 115.99 13020.8 16787.3 
372 0.4708 0.4708 0 0.00236443 0.00236443 3.4788e-05 188.132 8705.64 12303.5 
412 0.62 0.62 0 0.00185981 0.00185981 0.000169984 246.494 8783.07 12392.5 
452 0.7338 0.7338 0 0.00165972 0.00165972 3.25686e-05 288.8 9081.41 12952.4 
492 0.8088 0.8088 0 0.00197769 0.00197769 -0.000110198 319.872 9265.6 13133.9 
532 0.8952 0.8952 0 0.00205837 0.00205837 0.00018177 352.372 10230.6 13729.7 
572 0.901 0.901 0 0.00207083 0.00207083 0.000133592 360.619 10415.6 14406.4 
612 0.8108 0.8108 0 0.00278118 0.00278118 -5.3011e-05 320.389 10802.6 14994.5 
652 0.1552 0.1552 0 -0.00619318 -0.00619318 -3.65555e-05 61.7665 624.735 1501.46 
692 0.2298 0.2298 0 -0.00899251 -0.00899251 0.000115713 89.6851 1351.61 1834.16 
732 0.222 0.222 0 -0.00880453 -0.00880453 7.19777e-05 87.8103 2954.58 4069.88 
772 0.2372 0.2372 0 -0.00950556 -0.00950556 -0.000113712 94.802 3125.5 4779.52 
812 0.2546 0.2546 0 -0.0103215 -0.0103215 -0.000110019 102.94 3955.73 5727.1 
852 0.2304 0.2304 0 -0.00904194 -0.00904194 0.000117938 90.1781 1877.08 2254.31 
892 0.2274 0.2274 0 -0.00891639 -0.00891639 -2.64031e-05 88.9259 1760.58 2516.14 
932 0.1966 0.1966 0 -0.00775112 -0.00775112 5.39816e-07 77.3044 1191.71 1947.15 
972 0.7532 0.7532 0 0.00344048 0.00344048 -0.00019784 301.191 11792.1 15566.9 
1012 0.895 0.895 0 0.00242127 0.00242127 -0.000398433 359.079 11690.8 15073.7 
1052 0.8488 0.8488 0 0.00189427 0.00189427 -0.000387281 340.019 11485.8 15401.9 
1092 0.8426 0.8426 0 0.0020264 0.0020264 5.46197e-05 331.192 9618.1 14184.2 
1132 0.773 0.773 0 0.00246975 0.00246975 -0.000274945 305.164 11313.6 15095.9 
1172 0.6482 0.6482 0 0.00181624 0.00181624 0.000153596 257.14 9856.15 12300.6 