ITEM: TIMESTEP
25000
ITEM: NUMBER OF SURFS
1260
ITEM: BOX BOUNDS oo rr pp
0 0.3
0 0.3
-0.5 0.5
ITEM: SURFS id f_4[1] f_4[2] f_4[3] f_4[4] f_4[5] f_4[6] f_4[7] f_4[8] f_4[9] 
1 0.0012 0.0012 0 2.54734e-05 2.54734e-05 -1.29909e-05 238.681 -30753.5 -22057.6 
41 9.4886 9.4886 0 0.388962 0.388962 -0.00109115 3877.18 214199 304790 
81 10.495 10.495 0 0.424598 0.424598 0.000609666 4232.39 187449 272963 
121 10.9894 10.9894 0 0.443685 0.443685 -0.000460029 4422.66 186218 273472 
161 10.978 10.978 0 0.442589 0.442589 0.00125938 4411.73 175232 259593 
201 10.7688 10.7688 0 0.434823 0.434823 0.000407564 4334.32 187133 268331 
241 10.593 10.593 0 0.428373 0.428373 0.000527656 4270.02 196719 284054 
281 9.7878 9.7878 0 0.399973 0.399973 -0.000155191 3986.93 205240 295613 
321 0.0066 0.0066 0 0.000280637 0.000280637 2.11629e-05 1316.92 157494 134997 
361 0.4326 0.4326 0 0.00260742 0.00260742 2.07835e-05 172.259 7885.7 11069.2 
401 0.583 0.583 0 0.00244511 0.00244511 5.67012e-05 233.163 8190.99 11605.5 
441 0.7368 0.7368 0 0.00179911 0.00179911 -5.10005e-05 292.542 10591.6 15507.5 
481 0.8158 0.8158 0 0.00190479 0.00190479 -0.000604117 325.148 10651.9 16002.7 
521 0.8644 0.8644 0 0.00194852 0.00194852 0.000243867 342.839 9573.5 12906.8 
561 0.8696 0.8696 0 0.00188947 0.00188947 0.000128875 343.586 9965.64 13661.7 
601 0.8642 0.8642 0 0.00240396 0.00240396 0.000130796 346.552 11425.9 16024.9 
641 0.0002 0.0002 0 -6.12219e-06 -6.12219e-06 0 36.3665 0 0 
681 0.2264 0.2264 0 -0.00904676 -0.00904676 6.37763e-05 90.1781 1142.71 1856.54 
721 0.2288 0.2288 0 -0.00922291 -0.00922291 6.47557e-05 91.9339 2061.14 3245.44 
761 0.2386 0.2386 0 -0.00956928 -0.00956928 -0.000132317 95.3866 3942.85 5619.63 
801 0.2408 0.2408 0 -0.00983248 -0.00983248 -7.80103e-05 98.0101 4406.93 5345.63 
841 0.231 0.231 0 -0.00924095 -0.00924095 0.000141631 92.1138 3517.94 4731.41 
881 0.2292 0.2292 0 -0.00900994 -0.00900994 0.000200222 89.8111 2132.58 3444.72 
921 0.217 0.217 0 -0.00861003 -0.00861003 0.000253421 85.8247 1445.4 2052.25 
961 0.0006 0.0006 0 5.93398e-06 5.93398e-06 4.41332e-06 161.504 23791.4 27666 
1001 0.885 0.885 0 0.00226964 0.00226964 0.000387134 349.661 10552.5 14735.4 
1041 0.8946 0.8946 0 0.00221053 0.00221053 -0.000115813 359.527 10057.7 14156 
1081 0.8524 0.8524 0 0.00179397 0.00179397 -0.000109899 340.035 10481 15045 
1121 0.776 0.776 0 0.00215993 0.00215993 -0.00015198 310.295 9519.22 12984.6 
1161 0.6698 0.6698 0 0.00173661 0.00173661 -4.80543e-06 266.313 9518.8 12429.6 
1201 0.5632 0.5632 0 0.0019511 0.0019511 -0.000164608 224.38 9852.85 12810.7 
1241 0.4094 0.4094 0 0.00310719 0.00310719 -0.000145245 161.355 9262.13 12391.6 
2 0.0018 0.0018 0 4.26716e-05 4.26716e-05 2.71153e-05 281.716 27347 65615.6 
42 9.499 9.499 0 0.389394 0.389394 0.000389264 3881.48 214057 305447 
82 10.521 10.521 0 0.426069 0.426069 -0.000410901 4247.05 193110 285342 
122 10.913 10.913 0 0.440052 0.440052 0.000232589 4386.43 183527 275798 
162 10.9942 10.9942 0 0.442292 0.442292 0.000767171 4408.77 181432 262926 
202 10.9382 10.9382 0 0.442919 0.442919 -0.000475008 4415.01 189003 275664 
242 10.667 10.667 0 0.431747 0.431747 0.000658654 4303.65 190841 276667 
282 9.786 9.786 0 0.398638 0.398638 -0.000428332 3973.62 207769 302843 
322 0.0032 0.0032 0 0.000121341 0.000121341 1.31933e-05 536.535 119887 133480 
362 0.4284 0.4284 0 0.00270652 0.00270652 0.000276771 173.529 10571.1 13590.8 
402 0.582 0.582 0 0.00165292 0.00165292 0.000229332 232.418 9955.08 14167 
442 0.6784 0.6784 0 0.0017394 0.0017394 -4.85417e-05 270.104 9041.31 12183.1 
482 0.7912 0.7912 0 0.00166365 0.00166365 0.000180417 313.05 9948.83 13736.5 
522 0.8672 0.8672 0 0.00243315 0.00243315 -0.000493932 340.974 9710.14 14290.1 
562 0.8934 0.8934 0 0.00186513 0.00186513 -0.000505189 350.689 12061.8 16094.1 
602 0.8578 0.8578 0 0.0023477 0.0023477 -0.000462819 338.826 12482.8 15999.5 
642 0 0 0 0 0 0 0 0 0 
682 0.231 0.231 0 -0.00897217 -0.00897217 0.000187921 89.4345 1821.69 2584.76 
722 0.2228 0.2228 0 -0.00889808 -0.00889808 0.000225382 88.696 1883.08 2788.67 
762 0.2474 0.2474 0 -0.00978793 -0.00978793 6.04604e-06 97.566 2601.72 4391.97 
802 0.2388 0.2388 0 -0.00949521 -0.00949521 0.000134091 94.6483 3547.57 4594.22 
842 0.2292 0.2292 0 -0.0091071 -0.0091071 -5.45502e-05 90.7795 3441.72 3999.48 
882 0.2288 0.2288 0 -0.00882441 -0.00882441 7.09192e-05 87.9617 1538.48 2531.96 
922 0.2154 0.2154 0 -0.00839322 -0.00839322 -0.000183772 83.6636 859.556 1370.88 
962 0.5092 0.5092 0 0.00512918 0.00512918 -0.000171991 204.675 14379.2 17842.4 
1002 0.8842 0.8842 0 0.00242397 0.00242397 5.84147e-05 348.389 12341.5 16204.6 
1042 0.8694 0.8694 0 0.0019791 0.0019791 -0.000146528 343.147 11844.1 15201 
1082 0.839 0.839 0 0.00203048 0.00203048 -0.000113246 331.387 11693.6 14288.2 
1122 0.7644 0.7644 0 0.00193747 0.00193747 -3.18698e-05 300.498 9597.78 12647.9 
1162 0.69 0.69 0 0.00193121 0.00193121 -0.000287577 273.977 11058.4 14250.8 
1202 0.5356 0.5356 0 0.00201242 0.00201242 0.000324187 214.859 8456 11191.9 
1242 0.4048 0.4048 0 0.00382729 0.00382729 -4.42059e-05 160.381 9792.01 12672 
3 0.002 0.002 0 6.29827e-05 6.29827e-05 1.72599e-05 405.707 64261.7 97933.8 
43 9.5412 9.5412 0 0.390418 0.390418 -0.00179805 3891.68 205755 304168 
83 10.5114 10.5114 0 0.425823 0.425823 -0.000475523 4244.6 191825 272220 
123 10.7704 10.7704 0 0.434265 0.434265 -0.000141262 4328.75 180184 263565 
163 10.9682 10.9682 0 0.442296 0.442296 -0.00121471 4408.8 184444 263177 
203 10.9148 10.9148 0 0.440205 0.440205 0.000171727 4387.96 181731 262101 
243 10.6392 10.6392 0 0.432021 0.432021 -0.000238659 4306.38 189132 275540 
283 9.8098 9.8098 0 0.400936 0.400936 -0.00033171 3996.53 206059 300487 
323 0.004 0.004 0 0.000165549 0.000165549 1.28113e-05 807.633 54824.9 63489.6 
363 0.4204 0.4204 0 0.0026379 0.0026379 -0.000138595 169.686 10075.8 13047.2 
403 0.584 0.584 0 0.00206229 0.00206229 -5.86592e-05 234.085 8383.02 12679.9 
443 0.7314 0.7314 0 0.00153605 0.00153605 0.0002121 290.871 8962.78 13490.3 
483 0.802 0.802 0 0.00217472 0.00217472 3.21168e-06 315.811 8115.28 12267 
523 0.875 0.875 0 0.00155226 0.00155226 6.8699e-05 342.557 10270.5 13900.4 
563 0.9028 0.9028 0 0.00238398 0.00238398 -0.00037684 354.319 12275.9 15592.7 
603 0.8408 0.8408 0 0.00252764 0.00252764 0.000283785 332.328 9051.29 13147.4 
643 0.0004 0.0004 0 -1.45238e-05 -1.45238e-05 5.8948e-06 78.9042 -6354.24 -3687.35 
683 0.2336 0.2336 0 -0.00902684 -0.00902684 -0.00023155 89.9795 1673.55 2040.98 
723 0.218 0.218 0 -0.00875528 -0.00875528 0.000120061 87.2726 2233.45 2785.49 
763 0.2334 0.2334 0 -0.00945272 -0.00945272 -0.000319026 94.2247 3499.9 4503.79 
803 0.2506 0.2506 0 -0.0100443 -0.0100443 9.13248e-05 100.121 2700.07 4242.21 
843 0.2288 0.2288 0 -0.00895838 -0.00895838 0.000277518 89.2971 3096.14 4933.81 
883 0.2218 0.2218 0 -0.00880057 -0.00880057 -7.75762e-05 87.7241 900.301 1849.82 
923 0.2234 0.2234 0 -0.00866474 -0.00866474 0.000201772 86.3701 2152.3 3027.72 
963 0.5668 0.5668 0 0.00476831 0.00476831 6.93252e-05 226.357 14148.6 16534.6 
1003 0.8732 0.8732 0 0.00285127 0.00285127 0.000250149 347.024 11406 15311.6 
1043 0.8916 0.8916 0 0.0016945 0.0016945 -1.76504e-05 356.343 14213.1 17001.5 
1083 0.8612 0.8612 0 0.00198031 0.00198031 0.000204934 340.774 10676.5 14855.4 
1123 0.7768 0.7768 0 0.00213394 0.00213394 0.000291161 305.225 11121.3 14463.3 
1163 0.6664 0.6664 0 0.00172163 0.00172163 -3.38874e-06 264.577 8839.31 12076 
1203 0.5566 0.5566 0 0.00189357 0.00189357 -0.00014466 217.861 10501.8 13720.5 
1243 0.3912 0.3912 0 0.00350956 0.00350956 -0.000271449 156.954 10895.9 12913.1 
4 0.001 0.001 0 1.89495e-05 1.89495e-05 1.28153e-06 178.985 24227.5 35567.9 
44 9.6418 9.6418 0 0.394812 0.394812 0.000639926 3935.49 213285 312969 
84 10.7338 10.7338 0 0.432512 0.432512 0.00022654 4311.28 192328 281655 
124 10.9798 10.9798 0 0.443892 0.443892 0.00106707 4424.72 194261 283906 
164 11.0682 11.0682 0 0.446226 0.446226 0.000293651 4447.98 182895 267272 
204 10.8072 10.8072 0 0.435344 0.435344 0.000452942 4339.51 181717 267693 
244 10.4966 10.4966 0 0.425328 0.425328 -0.000735726 4239.67 187124 274470 
284 9.7416 9.7416 0 0.397473 0.397473 0.00124995 3962.01 208150 296970 
324 0.0042 0.0042 0 0.000165463 0.000165463 -1.95878e-05 865.141 29421.6 93533.7 
364 0.4414 0.4414 0 0.00293611 0.00293611 -3.05204e-05 178.631 9660.02 12243.3 
404 0.6046 0.6046 0 0.00175181 0.00175181 -0.000342301 236.799 8627.62 11307.4 
444 0.742 0.742 0 0.00181038 0.00181038 0.000153454 292.535 10729.6 14284.1 
484 0.805 0.805 0 0.00202219 0.00202219 -6.57732e-05 322.684 10385.3 13256.9 
524 0.8664 0.8664 0 0.00187098 0.00187098 0.000216009 345.994 9446.63 13564.9 
564 0.8824 0.8824 0 0.00192544 0.00192544 -1.33132e-05 349.969 11048 15455.3 
604 0.8526 0.8526 0 0.00224869 0.00224869 0.000105683 338.257 8535.51 12745.6 
644 0 0 0 0 0 0 0 0 0 
684 0.2218 0.2218 0 -0.0085064 -0.0085064 -0.000116262 84.7918 1521.88 2415.15 
724 0.2224 0.2224 0 -0.00913376 -0.00913376 -0.000129633 91.0452 1979.61 2087.33 
764 0.234 0.234 0 -0.00931892 -0.00931892 -3.86333e-05 92.891 2852.6 2775.97 
804 0.2642 0.2642 0 -0.0105892 -0.0105892 0.00015675 105.553 3333.57 5043.81 
844 0.2272 0.2272 0 -0.0091346 -0.0091346 9.73778e-05 91.0537 2444.84 3049.95 
884 0.235 0.235 0 -0.00928825 -0.00928825 2.48599e-05 92.5852 2131.66 2862.01 
924 0.214 0.214 0 -0.00855902 -0.00855902 2.30785e-05 85.3163 481.485 668.583 
964 0.6172 0.6172 0 0.00463418 0.00463418 -8.70554e-05 244.079 10419.7 13998.4 
1004 0.867 0.867 0 0.00226134 0.00226134 -0.00010362 340.299 11985.9 15203.3 
1044 0.8956 0.8956 0 0.00188657 0.00188657 0.000194572 353.703 12489.9 16748.2 
1084 0.8486 0.8486 0 0.0014873 0.0014873 4.47605e-05 332.456 10867.3 15162 
1124 0.774 0.774 0 0.00173515 0.00173515 0.000241412 303.83 10036.5 13995.1 
1164 0.6852 0.6852 0 0.00220218 0.00220218 3.99498e-05 275.227 9038.49 13642.4 
1204 0.529 0.529 0 0.00243265 0.00243265 0.00030446 210.544 10302.7 13675.5 
1244 0.3888 0.3888 0 0.00346835 0.00346835 -5.18338e-05 156.369 10574.3 12959.4 
5 0.0026 0.0026 0 9.07523e-05 9.07523e-05 -1.69381e-06 587.398 5926.61 13351.6 
45 9.491 9.491 0 0.38663 0.38663 -0.000617318 3853.93 212145 304760 
85 10.4686 10.4686 0 0.42165 0.42165 -0.000324364 4203.01 187606 267063 
125 10.9184 10.9184 0 0.440191 0.440191 7.61729e-06 4387.82 183775 270971 
165 10.8936 10.8936 0 0.439677 0.439677 0.00171366 4382.7 176036 259157 
205 10.9998 10.9998 0 0.445397 0.445397 -0.00167887 4439.72 194979 279158 
245 10.6498 10.6498 0 0.431622 0.431622 4.85342e-05 4302.41 199270 292042 
285 9.755 9.755 0 0.397539 0.397539 -0.00124505 3962.66 204147 300602 
325 0.0038 0.0038 0 0.000161098 0.000161098 -1.34159e-05 723.157 180344 138105 
365 0.4594 0.4594 0 0.00310072 0.00310072 -0.000134981 184.165 8993.87 11139.5 
405 0.612 0.612 0 0.00189152 0.00189152 -0.000141846 242.978 10075.9 13298 
445 0.7058 0.7058 0 0.00185323 0.00185323 -7.41493e-05 279.107 9476.38 13665.7 
485 0.8096 0.8096 0 0.00207794 0.00207794 0.00010483 323.41 9399.89 14425.6 
525 0.8512 0.8512 0 0.0018799 0.0018799 7.1228e-05 336.906 12225.1 15825.1 
565 0.8982 0.8982 0 0.0024012 0.0024012 0.000203387 355.12 11122.1 16419.3 
605 0.8424 0.8424 0 0.00315513 0.00315513 0.000226842 336.304 11696.6 15490.3 
645 0 0 0 0 0 0 0 0 0 
685 0.2326 0.2326 0 -0.00888346 -0.00888346 6.50417e-05 88.5503 975.224 658.658 
725 0.2264 0.2264 0 -0.00866263 -0.00866263 6.67673e-05 86.3491 1884.21 3108.86 
765 0.2422 0.2422 0 -0.00994244 -0.00994244 0.000109833 99.1062 2880.16 4623.98 
805 0.251 0.251 0 -0.0103087 -0.0103087 -8.74307e-05 102.757 3576.06 4757.02 
845 0.2268 0.2268 0 -0.00920291 -0.00920291 8.27698e-05 91.7345 3621.95 4299.78 
885 0.227 0.227 0 -0.00884291 -0.00884291 4.44497e-05 88.1461 2688.71 3707.36 
925 0.2062 0.2062 0 -0.00799913 -0.00799913 3.44105e-05 79.7353 1048.66 1310.79 
965 0.6352 0.6352 0 0.00456726 0.00456726 -0.000326437 253.705 10818.2 14451.3 
1005 0.9108 0.9108 0 0.00246547 0.00246547 0.000537279 362.579 10782.1 16176.2 
1045 0.8834 0.8834 0 0.00228881 0.00228881 0.000384409 349.715 10872.8 15154.1 
1085 0.848 0.848 0 0.00213227 0.00213227 4.83549e-05 334.841 10769.7 14637.4 
1125 0.7528 0.7528 0 0.00211392 0.00211392 -1.43464e-05 301.873 9159.16 13565.8 
1165 0.678 0.678 0 0.00215835 0.00215835 4.50609e-06 267.15 9270.54 11955.5 
1205 0.5228 0.5228 0 0.00189341 0.00189341 1.32763e-05 211.558 7685.09 11238.2 
1245 0.403 0.403 0 0.00379788 0.00379788 -0.000120807 159.94 11507.4 14335.2 
6 0.0026 0.0026 0 0.000101484 0.000101484 2.25904e-05 545.832 4710.71 -6104.2 
46 9.6978 9.6978 0 0.395731 0.395731 0.000219151 3944.64 206035 299870 
86 10.515 10.515 0 0.423701 0.423701 0.000741974 4223.45 184230 265495 
126 10.9248 10.9248 0 0.441177 0.441177 0.000288721 4397.65 186337 268367 
166 10.9886 10.9886 0 0.441886 0.441886 -1.10068e-05 4404.71 185701 267679 
206 10.7988 10.7988 0 0.435183 0.435183 0.000198397 4337.9 194663 282458 
246 10.5226 10.5226 0 0.42666 0.42666 -0.000173376 4252.94 192415 280019 
286 9.5958 9.5958 0 0.392186 0.392186 -0.000239299 3909.31 204355 299482 
326 0.0036 0.0036 0 0.000121597 0.000121597 -1.19254e-05 671.898 77591.7 92230.8 
366 0.456 0.456 0 0.00276575 0.00276575 0.00019559 183.212 9622.5 12690.5 
406 0.639 0.639 0 0.00227551 0.00227551 -6.81101e-05 253.361 9541.43 13797.6 
446 0.7282 0.7282 0 0.00216576 0.00216576 -4.25792e-05 287.304 9217.76 12571.1 
486 0.7978 0.7978 0 0.00211959 0.00211959 -0.000130909 318.738 10295.8 13708.2 
526 0.861 0.861 0 0.00207188 0.00207188 4.76009e-05 339.762 9482.26 13496.7 
566 0.9028 0.9028 0 0.00157126 0.00157126 7.59571e-05 354.342 12178.5 16184.9 
606 0.8148 0.8148 0 0.00232355 0.00232355 -0.00039098 324.214 11801.5 15639.4 
646 0.0002 0.0002 0 -1.63431e-06 -1.63431e-06 0 8.33686 0 0 
686 0.2336 0.2336 0 -0.00902144 -0.00902144 4.14537e-05 89.9257 2009.45 2528.85 
726 0.2302 0.2302 0 -0.00932366 -0.00932366 -8.52594e-05 92.9382 1628.6 1991.16 
766 0.234 0.234 0 -0.00922954 -0.00922954 5.09025e-05 92 4154.8 5498.99 
806 0.25 0.25 0 -0.0101482 -0.0101482 2.32859e-05 101.158 3720.61 5342.36 
846 0.225 0.225 0 -0.00892617 -0.00892617 0.000110543 88.9761 2932.54 3888.26 
886 0.2286 0.2286 0 -0.00904956 -0.00904956 -0.000167666 90.206 960.229 1901.61 
926 0.2172 0.2172 0 -0.00814492 -0.00814492 -2.33424e-05 81.1885 886.885 1104.57 
966 0.6596 0.6596 0 0.00345509 0.00345509 -2.3463e-05 265.075 11162.8 14324.7 
1006 0.8694 0.8694 0 0.00191712 0.00191712 -0.000219415 343.09 11947.2 16461.9 
1046 0.879 0.879 0 0.00179084 0.00179084 -0.000576159 351.065 12267.2 16419 
1086 0.8464 0.8464 0 0.00169185 0.00169185 0.00011278 335.89 11806.4 16245.9 
1126 0.792 0.792 0 0.00205816 0.00205816 0.000596497 312.98 9447.76 11895.9 
1166 0.6478 0.6478 0 0.00194084 0.00194084 -0.000166077 256.539 8741.33 11903.2 
1206 0.5352 0.5352 0 0.00206902 0.00206902 -0.000290284 212.502 7343.63 10600.7 
1246 0.3802 0.3802 0 0.00383334 0.00383334 -2.62941e-05 151.108 10705.3 13812.9 
7 0.0026 0.0026 0 0.000100842 0.000100842 -1.34487e-05 553.493 39207.4 50522.3 
47 9.7026 9.7026 0 0.395906 0.395906 0.000351667 3946.39 209096 300195 
87 10.6584 10.6584 0 0.430146 0.430146 -7.27488e-06 4287.69 190019 275375 
127 10.8962 10.8962 0 0.439661 0.439661 0.00059983 4382.54 179058 268330 
167 11.0198 11.0198 0 0.444158 0.444158 -0.000954797 4427.37 180590 268158 
207 10.8602 10.8602 0 0.440686 0.440686 0.000550965 4392.76 188566 273564 
247 10.6386 10.6386 0 0.43163 0.43163 0.000211254 4302.49 196843 284275 
287 9.5598 9.5598 0 0.3912 0.3912 -7.97406e-05 3899.48 209302 301095 
327 0.0018 0.0018 0 4.25546e-05 4.25546e-05 6.82078e-06 306.078 -2939.38 21043.2 
367 0.4532 0.4532 0 0.00255545 0.00255545 -0.000194281 183.549 9259.69 12269 
407 0.613 0.613 0 0.00195722 0.00195722 7.78122e-06 243.278 8142.27 10790.1 
447 0.7092 0.7092 0 0.0018055 0.0018055 -0.000248927 285.56 10346.5 14028.2 
487 0.7848 0.7848 0 0.00169121 0.00169121 -5.6753e-06 311.757 10126 12908.6 
527 0.854 0.854 0 0.00217094 0.00217094 -0.000163517 340.564 9310.93 13043.6 
567 0.9058 0.9058 0 0.00206415 0.00206415 -0.000237413 359.283 11072.9 14313.2 
607 0.8536 0.8536 0 0.00271184 0.00271184 0.000522274 337.123 11482.8 16236.8 
647 0.0624 0.0624 0 -0.00215861 -0.00215861 -5.1149e-05 21.5171 -706.364 -50.4977 
687 0.2266 0.2266 0 -0.00872439 -0.00872439 5.72268e-05 86.9647 1367.57 2158.64 
727 0.2168 0.2168 0 -0.00861594 -0.00861594 -7.719e-05 85.8836 3418.57 3869.39 
767 0.2482 0.2482 0 -0.00992898 -0.00992898 0.000139389 98.972 3108.45 5022.92 
807 0.2462 0.2462 0 -0.0100983 -0.0100983 1.81503e-05 100.66 4084.99 5216.19 
847 0.2326 0.2326 0 -0.00952165 -0.00952165 -0.000191544 94.9118 2963.94 4994.82 
887 0.2292 0.2292 0 -0.00909171 -0.00909171 -5.69341e-05 90.6261 1771.15 2800.63 
927 0.2118 0.2118 0 -0.0083414 -0.0083414 5.38105e-05 83.147 449.636 1006.3 
967 0.686 0.686 0 0.00400047 0.00400047 -0.00029994 271.451 11016.1 14524 
1007 0.9014 0.9014 0 0.0020229 0.0020229 0.000147148 359.384 11778.6 15873 
1047 0.9056 0.9056 0 0.00188521 0.00188521 0.000138525 358.863 13020.3 17769 
1087 0.85 0.85 0 0.00192937 0.00192937 7.86705e-05 337.224 10129.7 14260.8 
1127 0.7606 0.7606 0 0.0016431 0.0016431 -4.1298e-05 302.207 11073.8 15116.4 
1167 0.6612 0.6612 0 0.00167427 0.00167427 3.74473e-05 262.706 7795.37 11461.7 
1207 0.524 0.524 0 0.00223564 0.00223564 -1.01993e-05 207.041 8823.54 11956.4 
1247 0.3864 0.3864 0 0.00384639 0.00384639 -0.000116855 155.535 11128.4 13215.1 
8 0.0034 0.0034 0 0.00012308 0.00012308 -3.5747e-06 725.728 46936.3 8950.45 
48 9.8386 9.8386 0 0.401237 0.401237 0.000833531 3999.53 211543 302405 
88 10.563 10.563 0 0.426678 0.426678 -0.000182344 4253.13 189628 274766 
128 10.9144 10.9144 0 0.439741 0.439741 -0.00178697 4383.34 173483 251165 
168 10.9624 10.9624 0 0.441102 0.441102 -0.000809409 4396.91 178395 264220 
208 10.9108 10.9108 0 0.441242 0.441242 -0.000690496 4398.29 181260 269897 
248 10.5626 10.5626 0 0.427223 0.427223 -8.47742e-05 4258.56 193839 281672 
288 9.545 9.545 0 0.390717 0.390717 0.00014432 3894.66 196005 287848 
328 0.0014 0.0014 0 2.27289e-05 2.27289e-05 -6.98309e-07 195.349 13344.3 -14147.8 
368 0.4454 0.4454 0 0.00250213 0.00250213 0.000318214 176.922 7447.37 11117.8 
408 0.5974 0.5974 0 0.00211678 0.00211678 5.16285e-05 235.605 9466.17 12819 
448 0.73 0.73 0 0.00161662 0.00161662 0.000259627 287.199 9305.3 12963.1 
488 0.8288 0.8288 0 0.00140608 0.00140608 -2.98602e-05 330.083 9409.81 12731.9 
528 0.8716 0.8716 0 0.00157605 0.00157605 7.59215e-06 344.5 9213.82 13408.6 
568 0.8982 0.8982 0 0.00220485 0.00220485 0.000274662 351.294 11024.2 15902.1 
608 0.8348 0.8348 0 0.00226596 0.00226596 -0.000165469 331.1 10295.6 13567.3 
648 0.0802 0.0802 0 -0.00294851 -0.00294851 -0.00015527 29.3907 456.513 560.891 
688 0.2268 0.2268 0 -0.00877797 -0.00877797 9.56103e-05 87.4988 1083.5 1660.22 
728 0.227 0.227 0 -0.00885886 -0.00885886 3.69188e-05 88.3051 1571.89 3370.21 
768 0.2506 0.2506 0 -0.0100975 -0.0100975 4.49219e-05 100.652 4131.03 5531.09 
808 0.2432 0.2432 0 -0.00954201 -0.00954201 5.97754e-05 95.1147 3440.67 4487.5 
848 0.229 0.229 0 -0.00936224 -0.00936224 -0.000173343 93.3227 3292.75 4622.8 
888 0.2366 0.2366 0 -0.00921228 -0.00921228 0.000187414 91.828 2446.03 2761.11 
928 0.21 0.21 0 -0.00822193 -0.00822193 5.40627e-05 81.9561 1494.86 1764.26 
968 0.6626 0.6626 0 0.00337111 0.00337111 -3.10675e-05 267.804 12846 16390.5 
1008 0.886 0.886 0 0.00206213 0.00206213 -0.000177005 350.513 10067.4 14118.3 
1048 0.8704 0.8704 0 0.00176025 0.00176025 -4.01212e-05 347.804 10739.7 14911.5 
1088 0.8548 0.8548 0 0.00174321 0.00174321 -0.000358225 342.015 10771.7 15802.8 
1128 0.8 0.8 0 0.00191296 0.00191296 -0.000232729 316.599 11299.5 15651.3 
1168 0.655 0.655 0 0.00154772 0.00154772 8.32615e-05 257.314 8238.97 12207.5 
1208 0.524 0.524 0 0.00202034 0.00202034 6.99752e-06 205.583 8766.45 11747.7 
1248 0.3764 0.3764 0 0.00406078 0.00406078 -8.3599e-05 149.573 11507.6 13805.4 
9 0.0052 0.0052 0 0.000185735 0.000185735 -5.28879e-06 1016.61 127833 171919 
49 9.6914 9.6914 0 0.39606 0.39606 0.000262928 3947.92 200052 296161 
89 10.6362 10.6362 0 0.430893 0.430893 -0.000517395 4295.14 187785 272007 
129 10.8508 10.8508 0 0.438092 0.438092 0.000208613 4366.9 186647 275819 
169 11.1484 11.1484 0 0.448133 0.448133 -0.000737439 4466.99 170801 255184 
209 10.8902 10.8902 0 0.43922 0.43922 0.000164785 4378.14 188495 275389 
249 10.6262 10.6262 0 0.430222 0.430222 0.000167748 4288.45 194756 283429 
289 9.4996 9.4996 0 0.388934 0.388934 -0.000605601 3876.89 209343 301947 
329 0.0014 0.0014 0 5.2123e-05 5.2123e-05 4.29581e-06 225.688 47870 73721.2 
369 0.4536 0.4536 0 0.00248981 0.00248981 4.76881e-05 180.78 8192.01 10686.1 
409 0.6176 0.6176 0 0.00174125 0.00174125 -0.000234252 248.097 9509.99 12722.4 
449 0.7234 0.7234 0 0.0020454 0.0020454 -0.000156356 289.625 9952.15 13058.4 
489 0.8 0.8 0 0.00163035 0.00163035 0.000128865 319.392 9511.46 12330.4 
529 0.8686 0.8686 0 0.00211434 0.00211434 0.000122945 343.02 9285.13 12867.3 
569 0.8856 0.8856 0 0.00207054 0.00207054 -3.9201e-06 350.794 11964.3 16156.5 
609 0.8014 0.8014 0 0.0029636 0.0029636 -5.7968e-05 320.97 12728.8 17059.7 
649 0.096 0.096 0 -0.00363208 -0.00363208 2.56435e-05 36.2046 456.161 1349.48 
689 0.232 0.232 0 -0.00871992 -0.00871992 9.75002e-05 86.9202 2092.93 3095.53 
729 0.2376 0.2376 0 -0.00931145 -0.00931145 -3.48345e-05 92.8165 1578.92 2711.54 
769 0.236 0.236 0 -0.00944032 -0.00944032 2.66391e-05 94.101 3157.17 4801.35 
809 0.2498 0.2498 0 -0.0101604 -0.0101604 0.000136798 101.279 3690.75 4918.56 
849 0.2284 0.2284 0 -0.00917629 -0.00917629 -6.1256e-05 91.4693 2461.5 3877.86 
889 0.214 0.214 0 -0.00832175 -0.00832175 -0.000310261 82.9512 1222.06 1342.72 
929 0.2126 0.2126 0 -0.00835578 -0.00835578 -7.10081e-05 83.2903 759.045 1278.76 
969 0.7008 0.7008 0 0.00331213 0.00331213 -4.60124e-05 282.508 11224.8 15611.8 
1009 0.8566 0.8566 0 0.00191919 0.00191919 -0.000142026 341.833 10191.5 13429.8 
1049 0.8466 0.8466 0 0.0019594 0.0019594 -0.000107373 337.574 13151.7 16321.3 
1089 0.8368 0.8368 0 0.0020676 0.0020676 0.000172846 332.427 10097.1 15644 
1129 0.7604 0.7604 0 0.00177626 0.00177626 0.000305545 302.281 9839.66 14337.9 
1169 0.6692 0.6692 0 0.00180314 0.00180314 -0.000327316 267.401 10507.7 14706.9 
1209 0.5212 0.5212 0 0.00217992 0.00217992 0.000178967 207.152 9538.5 12072 
1249 0.3724 0.3724 0 0.0041152 0.0041152 6.86908e-06 148 12719.2 15541.6 
10 0.0066 0.0066 0 0.0002771 0.0002771 -1.19159e-05 1397.53 213773 296425 
50 9.9204 9.9204 0 0.403376 0.403376 -0.000653511 4020.85 200210 297431 
90 10.719 10.719 0 0.434229 0.434229 3.25114e-05 4328.4 192082 278731 
130 10.8632 10.8632 0 0.437088 0.437088 1.49607e-05 4356.89 186965 274052 
170 10.9136 10.9136 0 0.439674 0.439674 0.000406382 4382.66 181816 259558 
210 10.866 10.866 0 0.440045 0.440045 -0.00032079 4386.37 187696 271782 
250 10.2898 10.2898 0 0.416792 0.416792 0.000349532 4154.58 191374 281355 
290 9.4554 9.4554 0 0.386467 0.386467 -0.000866773 3852.3 210241 307387 
330 0.0018 0.0018 0 2.15173e-05 2.15173e-05 -2.79774e-05 325.576 -69.8071 -3355.48 
370 0.4698 0.4698 0 0.00239417 0.00239417 -0.000149578 186.802 7908.42 10157.1 
410 0.6244 0.6244 0 0.00232886 0.00232886 0.000259114 248.42 8982.88 12756.1 
450 0.7134 0.7134 0 0.00161113 0.00161113 6.44944e-05 286.725 8270.02 11924.2 
490 0.8322 0.8322 0 0.00206457 0.00206457 9.78872e-05 331.234 11638.9 16316.2 
530 0.8526 0.8526 0 0.00143378 0.00143378 0.000262635 340.69 12302.4 15243.6 
570 0.9176 0.9176 0 0.00255456 0.00255456 -0.000189337 361.038 11982.7 16545.2 
610 0.8296 0.8296 0 0.00228935 0.00228935 -5.59698e-05 330.881 13258.6 15737.7 
650 0.1124 0.1124 0 -0.00441957 -0.00441957 -0.000154346 44.0542 822.949 1190.03 
690 0.2464 0.2464 0 -0.00963408 -0.00963408 -0.000140822 96.0325 1924.3 1954.7 
730 0.2228 0.2228 0 -0.00857892 -0.00857892 -0.000117126 85.5147 1996.59 2971.09 
770 0.2492 0.2492 0 -0.0101561 -0.0101561 -0.000240347 101.236 2933.39 4925.24 
810 0.2454 0.2454 0 -0.00991418 -0.00991418 -0.000116241 98.8245 3638.79 4160.62 
850 0.227 0.227 0 -0.00913956 -0.00913956 3.39188e-05 91.1031 2060.22 3007.72 
890 0.2218 0.2218 0 -0.00890716 -0.00890716 -6.89736e-05 88.7865 2391.53 3179.31 
930 0.2028 0.2028 0 -0.00795533 -0.00795533 -0.000114999 79.2987 1670.04 2094.26 
970 0.7336 0.7336 0 0.00386631 0.00386631 5.5105e-05 290.258 9673.57 14497.3 
1010 0.912 0.912 0 0.00262059 0.00262059 -5.20339e-05 357.553 12248 17450.1 
1050 0.898 0.898 0 0.00151983 0.00151983 -0.000259733 356.421 9275.84 12861.8 
1090 0.8256 0.8256 0 0.00153359 0.00153359 0.000123856 328.257 10649.8 14757.1 
1130 0.7464 0.7464 0 0.00156292 0.00156292 -0.000185334 296.909 10693.6 13984.3 
1170 0.6344 0.6344 0 0.00170734 0.00170734 -0.000152171 251.6 8371.85 11754.6 
1210 0.5196 0.5196 0 0.00213742 0.00213742 1.53987e-05 208.955 8660.61 12329.8 
1250 0.3806 0.3806 0 0.00457808 0.00457808 1.20256e-05 152.794 12826.2 15939.8 
11 0.007 0.007 0 0.000260862 0.000260862 1.48362e-05 1374.36 102455 154555 
51 9.7828 9.7828 0 0.399174 0.399174 -8.62071e-05 3978.97 197537 291775 
91 10.5172 10.5172 0 0.425178 0.425178 7.86665e-05 4238.17 189478 276929 
131 10.889 10.889 0 0.439734 0.439734 0.000743654 4383.27 186622 269283 
171 11.0758 11.0758 0 0.445604 0.445604 0.000819769 4441.78 181667 262421 
211 10.8306 10.8306 0 0.437915 0.437915 -0.00134553 4365.14 193217 283483 
251 10.547 10.547 0 0.426366 0.426366 -0.00209622 4250.02 196733 282508 
291 9.4732 9.4732 0 0.388707 0.388707 -0.000698777 3874.63 206599 301474 
331 0.001 0.001 0 2.20601e-05 2.20601e-05 -2.31795e-06 171.866 5674.24 -5650.39 
371 0.4464 0.4464 0 0.00236001 0.00236001 -8.53615e-05 177.382 7220.5 9121.26 
411 0.6222 0.6222 0 0.00169672 0.00169672 2.47616e-05 248.373 9619.96 13425.6 
451 0.7438 0.7438 0 0.00206491 0.00206491 6.47446e-05 292.712 11839 14660.6 
491 0.7882 0.7882 0 0.00182502 0.00182502 -2.60769e-07 313.175 9669.26 12591.2 
531 0.8796 0.8796 0 0.00227334 0.00227334 0.000229651 345.797 10119.1 13797.6 
571 0.898 0.898 0 0.00258638 0.00258638 -0.000198982 354.737 10683.9 14228.4 
611 0.815 0.815 0 0.00323114 0.00323114 0.000313726 322.483 13315.5 16956.6 
651 0.1382 0.1382 0 -0.00541221 -0.00541221 7.57799e-06 53.9489 695.716 1588.41 
691 0.221 0.221 0 -0.00850533 -0.00850533 9.08196e-05 84.7811 771.126 1776.67 
731 0.2314 0.2314 0 -0.00902963 -0.00902963 -6.05484e-05 90.0073 2247.52 3989.81 
771 0.2438 0.2438 0 -0.00987846 -0.00987846 8.01439e-05 98.4684 3578.07 4652.61 
811 0.2544 0.2544 0 -0.0102165 -0.0102165 5.2149e-06 101.838 3072.3 4807.85 
851 0.2374 0.2374 0 -0.0093053 -0.0093053 9.22658e-05 92.7552 2548.45 4150.6 
891 0.2316 0.2316 0 -0.00899393 -0.00899393 -3.49966e-05 89.6515 1881.6 2489.35 
931 0.2038 0.2038 0 -0.00806948 -0.00806948 -8.94767e-05 80.4365 979.447 1765.91 
971 0.7298 0.7298 0 0.00322078 0.00322078 0.000345066 291.451 10877.1 14282.5 
1011 0.9124 0.9124 0 0.00217528 0.00217528 5.44423e-05 368.349 12767.4 17253.4 
1051 0.8444 0.8444 0 0.0020546 0.0020546 -0.000368505 333.319 12700.8 15315.8 
1091 0.844 0.844 0 0.00183217 0.00183217 -0.00017141 332.454 8818.22 11995.6 
1131 0.7598 0.7598 0 0.00184729 0.00184729 0.000467352 303.125 10819.4 13942 
1171 0.6486 0.6486 0 0.00163331 0.00163331 -7.67891e-05 257.998 9469.71 12324.1 
1211 0.497 0.497 0 0.00250513 0.00250513 -7.36767e-05 198.228 9278.34 11316.7 
1251 0.3568 0.3568 0 0.00440009 0.00440009 -6.11933e-06 139.581 10293 13742.3 
12 0.0046 0.0046 0 0.000222976 0.000222976 1.9977e-05 1088.79 96220.8 87348.7 
52 9.8248 9.8248 0 0.401996 0.401996 0.000599378 4007.1 204106 294507 
92 10.7132 10.7132 0 0.431365 0.431365 -0.00242681 4299.85 189473 276383 
132 10.8974 10.8974 0 0.439923 0.439923 -0.000766919 4385.15 185625 271676 
172 10.893 10.893 0 0.438504 0.438504 0.00147086 4371 178253 259683 
212 10.9034 10.9034 0 0.440136 0.440136 0.000737741 4387.28 190525 279960 
252 10.306 10.306 0 0.417557 0.417557 0.00200274 4162.2 185169 274149 
292 9.3182 9.3182 0 0.381751 0.381751 0.000512468 3805.29 206339 301676 
332 0.3332 0.3332 0 0.00580811 0.00580811 3.24638e-05 121.906 13442.6 18395.1 
372 0.4484 0.4484 0 0.00212448 0.00212448 -0.000216787 180.192 7595.16 10528.9 
412 0.6166 0.6166 0 0.00195059 0.00195059 -6.82819e-05 244.846 9669.68 12699.2 
452 0.7558 0.7558 0 0.00137393 0.00137393 8.64608e-06 300.97 10107.2 14061 
492 0.8038 0.8038 0 0.00217078 0.00217078 0.000284205 323.373 12227.2 15559.5 
532 0.851 0.851 0 0.00162452 0.00162452 0.000469042 336.631 9885.12 14359.4 
572 0.872 0.872 0 0.00189768 0.00189768 0.000113417 343.497 11264.6 15460.2 
612 0.8172 0.8172 0 0.00253765 0.00253765 0.000144556 321.777 10227.3 14348.4 
652 0.148 0.148 0 -0.00562901 -0.00562901 1.30761e-06 56.11 937.572 1347.74 
692 0.2184 0.2184 0 -0.00853008 -0.00853008 8.75154e-05 85.0278 424.937 168.123 
732 0.2208 0.2208 0 -0.00871891 -0.00871891 8.95943e-05 86.9101 2883.62 3801.62 
772 0.2464 0.2464 0 -0.00977991 -0.00977991 3.75541e-06 97.4861 3507.01 5518.4 
812 0.2402 0.2402 0 -0.009696 -0.009696 0.000296642 96.6497 3618.66 4537.34 
852 0.2138 0.2138 0 -0.00843858 -0.00843858 0.000129145 84.1157 1351.2 1776.29 
892 0.224 0.224 0 -0.00875106 -0.00875106 0.000268136 87.2306 1153.75 2304.51 
932 0.2036 0.2036 0 -0.00787684 -0.00787684 8.07709e-05 78.5163 1667.11 3002.48 
972 0.7272 0.7272 0 0.00298741 0.00298741 -0.000349688 289.136 9728.53 13026.1 
1012 0.898 0.898 0 0.00253118 0.00253118 -0.000101527 356.898 9566.72 14188.7 
1052 0.8654 0.8654 0 0.00194826 0.00194826 0.000203299 342.031 8204.38 12194.9 
1092 0.8228 0.8228 0 0.00191476 0.00191476 0.000359851 323.273 10628.5 15115.5 
1132 0.7626 0.7626 0 0.00224701 0.00224701 9.94858e-05 301.577 10044.7 14214.7 
1172 0.6476 0.6476 0 0.00187084 0.00187084 -0.000114538 258.701 10245.4 14079.8 
1212 0.5054 0.5054 0 0.0024219 0.0024219 0.00028413 200.316 9162.09 11855.1 
1252 0.3822 0.3822 0 0.00511295 0.00511295 0.000167553 151.066 13365.7 16119.8 
13 0.008 0.008 0 0.000336603 0.000336603 -1.55425e-06 1577.1 205694 209152 