ITEM: TIMESTEP
20000
ITEM: NUMBER OF SURFS
1272
ITEM: BOX BOUNDS oo rr pp
0 0.3
0 0.3
-0.5 0.5
ITEM: SURFS id f_4[1] f_4[2] f_4[3] f_4[4] f_4[5] f_4[6] f_4[7] f_4[8] f_4[9] 
1 0.129 0.129 0 3.53278e-05 3.53278e-05 -4.19973e-07 5.83412 1906.59 2735.46 
41 8.3852 8.3852 0 0.00412939 0.00412939 -7.54039e-06 41.2939 8414.61 11854.7 
81 9.115 9.115 0 0.00433035 0.00433035 -1.20633e-05 43.3035 7360.56 10584.2 
121 9.4452 9.4452 0 0.00442494 0.00442494 8.29964e-06 44.2494 6982.15 10111.4 
161 9.4532 9.4532 0 0.00440488 0.00440488 5.67788e-06 44.0488 6809.16 9729.34 
201 9.4554 9.4554 0 0.00444153 0.00444153 -9.76227e-06 44.4153 7071.04 10115.6 
241 9.322 9.322 0 0.00440915 0.00440915 1.79152e-05 44.0915 7397.05 10614 
281 8.6474 8.6474 0 0.00418981 0.00418981 -3.13334e-06 41.8981 8031.18 11368.4 
321 0.5116 0.5116 0 0.000292992 0.000292992 3.72747e-06 28.9283 8952.01 12399.3 
361 1.0662 1.0662 0 0.000213801 0.000213801 -6.04163e-07 5.01503 1573.08 2273.23 
401 1.055 1.055 0 0.000209704 0.000209704 9.51108e-07 5.00787 1534.16 2149.91 
441 1.042 1.042 0 0.000198455 0.000198455 6.5368e-06 4.93994 1438.2 2023.43 
481 0.9946 0.9946 0 0.000197648 0.000197648 -2.83203e-06 4.73093 1428.63 1911.18 
521 0.9582 0.9582 0 0.000198261 0.000198261 5.99478e-07 4.61905 1444.81 1907.72 
561 0.8978 0.8978 0 0.000187163 0.000187163 -3.92098e-06 4.26528 1318.53 1750.36 
601 0.8308 0.8308 0 0.000186467 0.000186467 -3.48839e-07 3.95624 1270.2 1638.94 
641 0.024 0.024 0 1.74113e-06 1.74113e-06 -4.40757e-07 0.96446 361.773 474.927 
681 0.0226 0.0226 0 -8.40584e-06 -8.40584e-06 4.39972e-07 0.0840584 12.9997 24.2739 
721 0.0312 0.0312 0 -1.189e-05 -1.189e-05 9.41647e-08 0.1189 13.7263 34.0686 
761 0.029 0.029 0 -1.11071e-05 -1.11071e-05 7.76927e-09 0.111071 11.9008 26.901 
801 0.0252 0.0252 0 -9.12374e-06 -9.12374e-06 1.30163e-07 0.0912374 11.7792 20.2466 
841 0.031 0.031 0 -1.2197e-05 -1.2197e-05 5.09275e-07 0.12197 9.89329 26.966 
881 0.034 0.034 0 -1.32554e-05 -1.32554e-05 -5.11372e-07 0.132554 18.3289 35.9619 
921 0.025 0.025 0 -9.15702e-06 -9.15702e-06 -4.41997e-09 0.0915702 16.3315 26.8521 
961 0.0102 0.0102 0 -1.03314e-06 -1.03314e-06 1.74471e-09 0.350437 106.97 156.904 
1001 0.801 0.801 0 0.000182173 0.000182173 -4.03744e-06 3.7559 1210.15 1597 
1041 0.8984 0.8984 0 0.000189954 0.000189954 -2.80071e-06 4.31686 1308.46 1719.5 
1081 0.9442 0.9442 0 0.000185009 0.000185009 3.58008e-06 4.52481 1287.21 1732.82 
1121 0.9898 0.9898 0 0.000198473 0.000198473 1.09588e-06 4.72749 1446.03 1943.72 
1161 1.0012 1.0012 0 0.000200238 0.000200238 1.86787e-06 4.76084 1465.24 1974.86 
1201 1.0522 1.0522 0 0.00021028 0.00021028 3.39208e-06 4.99176 1578.28 2182.16 
1241 1.0664 1.0664 0 0.000218693 0.000218693 1.09125e-06 4.96159 1530.39 2153.94 
2 0.153 0.153 0 4.65678e-05 4.65678e-05 3.67766e-07 7.0452 2417.18 3405.57 
42 8.4044 8.4044 0 0.00413456 0.00413456 3.31918e-06 41.3456 8211.25 11641.8 
82 9.1624 9.1624 0 0.00434133 0.00434133 6.67277e-06 43.4133 7399.77 10720.2 
122 9.4634 9.4634 0 0.00444262 0.00444262 2.08051e-06 44.4262 6945.42 10001.4 
162 9.5218 9.5218 0 0.00444681 0.00444681 -1.20307e-05 44.4681 6900.26 9962.05 
202 9.4016 9.4016 0 0.00440488 0.00440488 6.58224e-06 44.0488 7028.47 10134.5 
242 9.1788 9.1788 0 0.00434665 0.00434665 -1.47283e-05 43.4665 7237.03 10396.5 
282 8.6594 8.6594 0 0.00419623 0.00419623 -4.95841e-06 41.9623 7937.02 11322.5 
322 0.4528 0.4528 0 0.000252976 0.000252976 3.45354e-06 25.0839 7854.84 10978.4 
362 1.056 1.056 0 0.000211136 0.000211136 -4.16611e-07 4.90809 1564.91 2234.53 
402 1.0286 1.0286 0 0.000201451 0.000201451 -3.38467e-06 4.83981 1479.67 2072.66 
442 1.0104 1.0104 0 0.000201388 0.000201388 -3.25857e-06 4.83097 1528.98 2042.58 
482 0.9934 0.9934 0 0.000190499 0.000190499 4.08213e-06 4.69257 1428.52 1905.92 
522 0.9478 0.9478 0 0.000194406 0.000194406 -1.50062e-06 4.54761 1400.21 1855.59 
562 0.8944 0.8944 0 0.000182677 0.000182677 1.91561e-06 4.2798 1271.56 1703.56 
602 0.814 0.814 0 0.000185727 0.000185727 2.20446e-06 3.86586 1277.95 1673.41 
642 0.0178 0.0178 0 -3.60687e-07 -3.60687e-07 2.02666e-08 0.679416 200.773 301.691 
682 0.0264 0.0264 0 -9.72905e-06 -9.72905e-06 -3.14275e-07 0.0972905 11.8988 25.5803 
722 0.0292 0.0292 0 -1.10507e-05 -1.10507e-05 2.12994e-07 0.110507 12.1214 27.6081 
762 0.0264 0.0264 0 -9.5794e-06 -9.5794e-06 4.48437e-07 0.095794 13.677 23.0697 
802 0.0282 0.0282 0 -1.04225e-05 -1.04225e-05 -5.09016e-07 0.104225 10.6095 19.9538 
842 0.025 0.025 0 -1.02125e-05 -1.02125e-05 -6.76103e-07 0.102125 12.7118 27.2916 
882 0.028 0.028 0 -1.05914e-05 -1.05914e-05 -2.01053e-07 0.105914 14.212 21.8674 
922 0.0232 0.0232 0 -8.45435e-06 -8.45435e-06 -2.90581e-07 0.0845435 9.76581 20.0047 
962 0.0132 0.0132 0 -7.81347e-07 -7.81347e-07 3.27343e-07 0.484802 130.684 210.581 
1002 0.802 0.802 0 0.000184813 0.000184813 2.34014e-06 3.83529 1253.02 1637.58 
1042 0.8848 0.8848 0 0.000185872 0.000185872 1.75538e-06 4.26442 1281.51 1686.63 
1082 0.956 0.956 0 0.000185157 0.000185157 -5.49388e-06 4.56931 1393.09 1839.42 
1122 0.9756 0.9756 0 0.000188013 0.000188013 -3.00551e-06 4.63351 1415.76 1906.35 
1162 1.0138 1.0138 0 0.000206425 0.000206425 3.21044e-07 4.82849 1500.8 2016.1 
1202 1.0318 1.0318 0 0.00020225 0.00020225 -1.17952e-06 4.78194 1537.24 2117.29 
1242 1.0466 1.0466 0 0.000211032 0.000211032 -3.96919e-06 4.87595 1521.23 2162.14 
3 0.168 0.168 0 5.89389e-05 5.89389e-05 -3.17836e-07 8.29965 2728.67 3975.18 
43 8.4644 8.4644 0 0.00416455 0.00416455 3.03968e-06 41.6455 8270.81 11728.6 
83 9.1098 9.1098 0 0.00432637 0.00432637 -2.78395e-06 43.2637 7415.61 10585.8 
123 9.5158 9.5158 0 0.00448865 0.00448865 -1.18215e-05 44.8865 7180.29 10408.6 
163 9.5998 9.5998 0 0.00448205 0.00448205 -1.00973e-05 44.8205 7071.31 10225.2 
203 9.5354 9.5354 0 0.00446778 0.00446778 -1.50168e-05 44.6778 7130.07 10253.7 
243 9.2552 9.2552 0 0.00439015 0.00439015 7.18055e-07 43.9015 7352.31 10612.2 
283 8.6634 8.6634 0 0.00422083 0.00422083 -1.57249e-06 42.2083 8028.92 11467.6 
323 0.4024 0.4024 0 0.00022297 0.00022297 3.32144e-07 22.2894 7466.17 10203.2 
363 1.0396 1.0396 0 0.000212801 0.000212801 1.6305e-06 4.84797 1550.69 2220.28 
403 1.0768 1.0768 0 0.000215539 0.000215539 -1.53952e-06 5.04173 1595.72 2177.14 
443 1.0146 1.0146 0 0.000205882 0.000205882 -3.24292e-06 4.85935 1505.03 2074.35 
483 0.9696 0.9696 0 0.000193501 0.000193501 -8.56861e-07 4.60661 1423.82 1924.45 
523 0.9384 0.9384 0 0.00018517 0.00018517 4.31048e-06 4.51691 1386.49 1805.13 
563 0.9172 0.9172 0 0.000190927 0.000190927 -3.21581e-06 4.37603 1336.58 1769.34 
603 0.8346 0.8346 0 0.000188836 0.000188836 -3.35545e-06 4.02715 1256.83 1649.38 
643 0.0108 0.0108 0 -6.58773e-07 -6.58773e-07 -3.14265e-07 0.40291 159.579 211.282 
683 0.024 0.024 0 -9.23517e-06 -9.23517e-06 1.86614e-07 0.0923517 8.56191 18.2096 
723 0.0298 0.0298 0 -1.07797e-05 -1.07797e-05 5.19563e-07 0.107797 15.0629 26.429 
763 0.0314 0.0314 0 -1.27967e-05 -1.27967e-05 5.94509e-08 0.127967 12.9269 26.6515 
803 0.0278 0.0278 0 -1.0686e-05 -1.0686e-05 5.54844e-07 0.10686 11.3416 26.1254 
843 0.0284 0.0284 0 -1.09348e-05 -1.09348e-05 -3.94069e-07 0.109348 6.39052 16.6969 
883 0.0256 0.0256 0 -9.53907e-06 -9.53907e-06 2.21956e-07 0.0953907 14.0029 25.0517 
923 0.0252 0.0252 0 -8.66471e-06 -8.66471e-06 2.57511e-07 0.0866471 11.3311 25.4727 
963 0.0172 0.0172 0 -6.33071e-07 -6.33071e-07 -3.32046e-07 0.69409 226.069 280.893 
1003 0.8248 0.8248 0 0.000185403 0.000185403 -1.75594e-06 3.93651 1248.46 1632.76 
1043 0.894 0.894 0 0.000182442 0.000182442 -4.17286e-06 4.22564 1284.28 1703.15 
1083 0.9388 0.9388 0 0.000186973 0.000186973 -6.53452e-07 4.47118 1368.11 1793.88 
1123 0.9902 0.9902 0 0.000185247 0.000185247 -4.78713e-06 4.72318 1400.14 1890.06 
1163 1.0526 1.0526 0 0.000212382 0.000212382 -1.9905e-06 5.00131 1530.42 2099.38 
1203 1.0676 1.0676 0 0.000216221 0.000216221 3.83936e-06 5.02548 1555.31 2181.38 
1243 1.053 1.053 0 0.000219996 0.000219996 3.61235e-06 4.89069 1620.48 2263.61 
4 0.209 0.209 0 7.98615e-05 7.98615e-05 -9.41825e-07 10.3721 3313.93 4844.52 
44 8.4718 8.4718 0 0.00414947 0.00414947 -4.67575e-06 41.4947 8159.92 11500.8 
84 9.1838 9.1838 0 0.00434842 0.00434842 -1.01509e-05 43.4842 7336.27 10470.5 
124 9.4122 9.4122 0 0.00440461 0.00440461 -6.41732e-06 44.0461 6951.85 10070.1 
164 9.5854 9.5854 0 0.00445402 0.00445402 7.80591e-06 44.5402 6909.81 9967.86 
204 9.4784 9.4784 0 0.00443645 0.00443645 -1.66964e-06 44.3645 7007.17 10155.9 
244 9.2312 9.2312 0 0.00436595 0.00436595 1.45904e-05 43.6595 7366.35 10557.9 
284 8.5394 8.5394 0 0.00414418 0.00414418 -1.61875e-05 41.4418 7913.73 11237.7 
324 0.3826 0.3826 0 0.000206163 0.000206163 4.72357e-07 21.0713 6829.81 9291.32 
364 1.0602 1.0602 0 0.000215809 0.000215809 -2.60446e-07 4.96644 1581.97 2241.99 
404 1.0566 1.0566 0 0.000210055 0.000210055 2.03695e-06 4.97816 1571.26 2144.92 
444 1.0466 1.0466 0 0.000212684 0.000212684 7.32218e-07 4.97205 1520.74 2063.63 
484 0.9842 0.9842 0 0.000197645 0.000197645 -4.75826e-06 4.6877 1418.43 1928.72 
524 0.9228 0.9228 0 0.000176296 0.000176296 4.33389e-06 4.3565 1272.37 1725.57 
564 0.9046 0.9046 0 0.000185785 0.000185785 -1.63799e-06 4.30306 1306.1 1755.29 
604 0.8118 0.8118 0 0.000184614 0.000184614 -1.85741e-06 3.89392 1256.6 1652.56 
644 0.008 0.008 0 -1.34182e-06 -1.34182e-06 -3.13631e-07 0.305531 23.798 52.6291 
684 0.0232 0.0232 0 -9.04479e-06 -9.04479e-06 -4.2046e-07 0.0904479 14.7616 24.4023 
724 0.0284 0.0284 0 -1.10919e-05 -1.10919e-05 7.17214e-07 0.110919 14.065 25.1785 
764 0.028 0.028 0 -9.72022e-06 -9.72022e-06 2.87469e-07 0.0972022 10.3568 23.9312 
804 0.0322 0.0322 0 -1.18199e-05 -1.18199e-05 9.70874e-08 0.118199 15.3365 31.5521 
844 0.0322 0.0322 0 -1.25913e-05 -1.25913e-05 -4.89934e-08 0.125913 16.466 32.482 
884 0.0278 0.0278 0 -1.05928e-05 -1.05928e-05 -4.57967e-07 0.105928 15.8632 28.0322 
924 0.0282 0.0282 0 -1.01917e-05 -1.01917e-05 1.14608e-06 0.101917 16.328 30.4206 
964 0.0216 0.0216 0 4.23583e-07 4.23583e-07 3.5462e-07 0.885426 272.06 340.426 
1004 0.817 0.817 0 0.000185562 0.000185562 2.22106e-06 3.90462 1249.33 1619.17 
1044 0.9022 0.9022 0 0.000189524 0.000189524 -3.60311e-06 4.33183 1318.87 1750 
1084 0.9244 0.9244 0 0.000184657 0.000184657 -4.33327e-06 4.40168 1311.31 1756.36 
1124 0.999 0.999 0 0.000196945 0.000196945 -3.33054e-06 4.79794 1431.59 1910.97 
1164 1.0158 1.0158 0 0.000200971 0.000200971 1.94337e-06 4.82656 1470.16 1983.25 
1204 1.0568 1.0568 0 0.000210753 0.000210753 8.77582e-07 4.91216 1482.29 2077.89 
1244 1.0738 1.0738 0 0.000217951 0.000217951 3.95385e-06 5.04419 1606.21 2249.98 
5 0.2396 0.2396 0 0.000100572 0.000100572 1.14892e-06 11.933 3865.39 5685.47 
45 8.4746 8.4746 0 0.00415809 0.00415809 1.2767e-06 41.5809 8195.35 11667.5 
85 9.1728 9.1728 0 0.00433581 0.00433581 -4.90699e-07 43.3581 7170.37 10365 
125 9.446 9.446 0 0.00441664 0.00441664 6.08e-06 44.1664 7091.89 10236.9 
165 9.56 9.56 0 0.00446511 0.00446511 2.84544e-05 44.6511 6904.31 10035.7 
205 9.4664 9.4664 0 0.00442278 0.00442278 6.33516e-06 44.2278 6936.67 10017.9 
245 9.2322 9.2322 0 0.00437082 0.00437082 9.41659e-08 43.7082 7375.68 10551.7 
285 8.623 8.623 0 0.00419221 0.00419221 1.14337e-05 41.9221 8018.4 11376.5 
325 0.3344 0.3344 0 0.000173202 0.000173202 -2.43095e-06 18.0127 5970.19 8192.27 
365 1.0404 1.0404 0 0.000211979 0.000211979 1.01762e-06 4.85002 1542.83 2195.92 
405 1.0728 1.0728 0 0.000209599 0.000209599 6.45692e-06 5.03489 1547.69 2184.41 
445 1.0226 1.0226 0 0.000206799 0.000206799 -1.52498e-06 4.80107 1521.47 2040.98 
485 0.9968 0.9968 0 0.000195807 0.000195807 6.61711e-06 4.73956 1439.67 1934.64 
525 0.9406 0.9406 0 0.000187107 0.000187107 -3.46807e-06 4.43952 1338.58 1759.79 
565 0.9156 0.9156 0 0.000191913 0.000191913 2.50938e-06 4.3567 1330.23 1736.27 
605 0.781 0.781 0 0.00017906 0.00017906 -2.13413e-06 3.71528 1208.04 1570.73 
645 0.0096 0.0096 0 -1.95871e-06 -1.95871e-06 -6.8148e-07 0.377167 51.9552 130.809 
685 0.0236 0.0236 0 -9.66113e-06 -9.66113e-06 -4.41933e-07 0.0966113 10.6677 24.2231 
725 0.0274 0.0274 0 -1.07595e-05 -1.07595e-05 -9.15274e-07 0.107595 9.71372 22.921 
765 0.0254 0.0254 0 -9.33322e-06 -9.33322e-06 -1.19307e-07 0.0933322 15.5844 26.3506 
805 0.0292 0.0292 0 -1.13121e-05 -1.13121e-05 8.01974e-08 0.113121 14.1709 28.951 
845 0.0332 0.0332 0 -1.34678e-05 -1.34678e-05 -2.20828e-07 0.134678 16.0121 30.6875 
885 0.0286 0.0286 0 -1.12935e-05 -1.12935e-05 4.48189e-07 0.112935 12.1949 21.795 
925 0.0266 0.0266 0 -9.89529e-06 -9.89529e-06 4.55081e-08 0.0989529 15.4298 32.8136 
965 0.0294 0.0294 0 2.48477e-06 2.48477e-06 1.55261e-06 1.18536 484.655 596.518 
1005 0.8016 0.8016 0 0.000178479 0.000178479 5.2428e-08 3.85207 1240.99 1603.6 
1045 0.919 0.919 0 0.000184027 0.000184027 -1.05117e-06 4.32914 1341.36 1769.54 
1085 0.9476 0.9476 0 0.000185422 0.000185422 1.40966e-06 4.50924 1363.96 1796.88 
1125 0.9732 0.9732 0 0.000189625 0.000189625 -4.83562e-06 4.58607 1394.37 1877.17 
1165 1.0652 1.0652 0 0.000213207 0.000213207 -1.99931e-06 5.01725 1558.52 2135.67 
1205 1.0382 1.0382 0 0.000212061 0.000212061 2.14241e-06 4.91724 1525.46 2131.6 
1245 1.0526 1.0526 0 0.000216313 0.000216313 -3.15518e-06 4.83564 1587.2 2262.17 
6 0.2546 0.2546 0 0.000116983 0.000116983 3.1083e-06 13.1474 4278.04 6128.8 
46 8.4424 8.4424 0 0.00412457 0.00412457 1.16016e-05 41.2457 8079.64 11433.9 
86 9.244 9.244 0 0.00437139 0.00437139 2.10565e-05 43.7139 7405.7 10599.8 
126 9.4772 9.4772 0 0.0044382 0.0044382 2.8663e-06 44.382 7075.3 10192.6 
166 9.538 9.538 0 0.00445847 0.00445847 8.36056e-06 44.5847 6949.78 10110.7 
206 9.4248 9.4248 0 0.00441642 0.00441642 5.82028e-07 44.1642 7108.29 10204.6 
246 9.2574 9.2574 0 0.00440209 0.00440209 6.22108e-06 44.0209 7507.12 10772.7 
286 8.5544 8.5544 0 0.00415771 0.00415771 5.93036e-06 41.5771 8012.79 11413 
326 0.3026 0.3026 0 0.000150522 0.000150522 -3.5054e-06 15.924 5512.15 7728.49 
366 1.0526 1.0526 0 0.000217601 0.000217601 1.01337e-06 4.86597 1561.95 2200.27 
406 1.0814 1.0814 0 0.0002136 0.0002136 -1.49617e-06 5.10125 1539.98 2135.93 
446 1.0294 1.0294 0 0.000195644 0.000195644 -1.75114e-06 4.88596 1478.48 2020.59 
486 0.9782 0.9782 0 0.000191583 0.000191583 3.20516e-06 4.69674 1371.1 1881.44 
526 0.9698 0.9698 0 0.000199113 0.000199113 1.70981e-06 4.59451 1430.04 1888.28 
566 0.896 0.896 0 0.000187158 0.000187158 8.32217e-08 4.24028 1284.58 1679.07 
606 0.7896 0.7896 0 0.000181645 0.000181645 -1.74887e-06 3.78365 1215.97 1578.14 
646 0.0054 0.0054 0 -1.11588e-06 -1.11588e-06 1.02736e-07 0.171329 25.4324 27.177 
686 0.0218 0.0218 0 -8.11321e-06 -8.11321e-06 5.18222e-08 0.0811321 21.7315 29.7087 
726 0.0322 0.0322 0 -1.13642e-05 -1.13642e-05 2.49545e-07 0.113642 14.5326 28.5403 
766 0.0274 0.0274 0 -1.04133e-05 -1.04133e-05 5.47237e-07 0.104133 14.6188 25.8468 
806 0.0304 0.0304 0 -1.21821e-05 -1.21821e-05 2.164e-07 0.121821 16.0197 33.9065 
846 0.0298 0.0298 0 -1.20271e-05 -1.20271e-05 -3.96861e-07 0.120271 17.2458 32.775 
886 0.024 0.024 0 -8.81886e-06 -8.81886e-06 -5.62704e-07 0.0881886 11.4438 23.5499 
926 0.027 0.027 0 -9.87851e-06 -9.87851e-06 -1.12631e-06 0.0987851 13.3422 28.6301 
966 0.0386 0.0386 0 5.18013e-06 5.18013e-06 -7.09535e-07 1.67445 611.641 796.088 
1006 0.8178 0.8178 0 0.000189748 0.000189748 -3.5411e-06 3.94162 1289.43 1674.54 
1046 0.909 0.909 0 0.000186625 0.000186625 -7.25347e-06 4.33009 1319.79 1750.95 
1086 0.9528 0.9528 0 0.00019001 0.00019001 -2.13641e-07 4.50706 1391.29 1866.03 
1126 0.9944 0.9944 0 0.000192938 0.000192938 -2.91431e-07 4.71646 1373.38 1887.85 
1166 1.0414 1.0414 0 0.000203383 0.000203383 5.4366e-06 4.95702 1536.58 2092.06 
1206 1.0506 1.0506 0 0.000201876 0.000201876 4.7542e-07 4.96842 1509.96 2108.8 
1246 1.0504 1.0504 0 0.000212894 0.000212894 -6.60939e-07 4.88701 1571.71 2269.16 
7 0.2916 0.2916 0 0.000141656 0.000141656 3.17606e-06 14.9651 5122.54 6945.71 
47 8.4834 8.4834 0 0.00414274 0.00414274 -1.20587e-05 41.4274 8070.23 11456 
87 9.2456 9.2456 0 0.00439357 0.00439357 3.91874e-06 43.9357 7470.2 10704.8 
127 9.5462 9.5462 0 0.00446893 0.00446893 -6.89561e-06 44.6893 7007.32 10091.5 
167 9.6578 9.6578 0 0.00451283 0.00451283 5.38967e-07 45.1283 7005.54 10097.2 
207 9.5068 9.5068 0 0.00446074 0.00446074 -7.19247e-06 44.6074 7003.15 10006.8 
247 9.231 9.231 0 0.00438506 0.00438506 5.69793e-07 43.8506 7408.09 10633.1 
287 8.5018 8.5018 0 0.00415176 0.00415176 -1.76083e-06 41.5176 8106.35 11393.7 
327 0.2534 0.2534 0 0.000119005 0.000119005 2.49704e-06 13.1518 4348.4 5913.42 
367 1.061 1.061 0 0.00021188 0.00021188 -5.61174e-07 4.97291 1563.35 2202.25 
407 1.0376 1.0376 0 0.000207924 0.000207924 -5.03235e-06 4.89783 1523.88 2070.01 
447 1.035 1.035 0 0.00020171 0.00020171 6.1202e-06 4.99771 1515.04 2078.97 
487 0.973 0.973 0 0.000195682 0.000195682 1.01096e-06 4.63828 1467.93 1974.1 
527 0.9634 0.9634 0 0.000185029 0.000185029 -3.0152e-06 4.55731 1337.84 1815.82 
567 0.8962 0.8962 0 0.000189834 0.000189834 -2.26657e-06 4.28231 1275.72 1686.44 
607 0.7918 0.7918 0 0.000178985 0.000178985 1.09161e-06 3.77282 1163.95 1524.09 
647 0.0048 0.0048 0 -1.27964e-06 -1.27964e-06 3.85352e-07 0.166026 24.3513 39.2959 
687 0.0238 0.0238 0 -8.25152e-06 -8.25152e-06 -1.96612e-08 0.0825152 13.9008 25.7833 
727 0.0308 0.0308 0 -1.19297e-05 -1.19297e-05 -5.37329e-07 0.119297 12.3163 25.5489 
767 0.0296 0.0296 0 -1.19691e-05 -1.19691e-05 3.22741e-07 0.119691 18.0621 31.2819 
807 0.0314 0.0314 0 -1.14746e-05 -1.14746e-05 6.45869e-07 0.114746 10.9632 29.2434 
847 0.03 0.03 0 -1.15388e-05 -1.15388e-05 -1.89926e-07 0.115388 19.0023 34.534 
887 0.0274 0.0274 0 -1.04146e-05 -1.04146e-05 -2.7008e-07 0.104146 19.3043 29.9954 
927 0.0236 0.0236 0 -8.40459e-06 -8.40459e-06 2.90732e-07 0.0840459 9.80967 24.5838 
967 0.0496 0.0496 0 8.69724e-06 8.69724e-06 -5.87887e-07 2.30447 870.39 1187.24 
1007 0.8368 0.8368 0 0.000185954 0.000185954 -3.31132e-06 4.02384 1280.18 1669.95 
1047 0.9044 0.9044 0 0.000187306 0.000187306 3.91502e-06 4.29828 1310.75 1720.33 
1087 0.9724 0.9724 0 0.000192314 0.000192314 3.54813e-07 4.65476 1380.66 1819.92 
1127 0.9856 0.9856 0 0.000192329 0.000192329 -3.77317e-07 4.69003 1416.15 1902.2 
1167 1.0332 1.0332 0 0.00020145 0.00020145 -8.50937e-07 4.8342 1513.79 2037.77 
1207 1.0584 1.0584 0 0.000211644 0.000211644 2.07603e-06 4.98421 1544.37 2163.14 
1247 1.0752 1.0752 0 0.000224874 0.000224874 -5.36202e-06 5.01854 1655.79 2342.66 
8 0.3298 0.3298 0 0.000170772 0.000170772 3.12112e-06 17.7984 5963 8282.94 
48 8.6354 8.6354 0 0.00419496 0.00419496 2.68834e-06 41.9496 8035.57 11438.9 
88 9.2124 9.2124 0 0.00434306 0.00434306 -4.54639e-06 43.4306 7301.42 10450.2 
128 9.4836 9.4836 0 0.0044437 0.0044437 -1.71361e-05 44.437 7038.98 10149.7 
168 9.5978 9.5978 0 0.00446475 0.00446475 -1.38389e-05 44.6475 6920.88 10034.8 
208 9.491 9.491 0 0.0044492 0.0044492 -1.01199e-06 44.492 7085.3 10264 
248 9.2404 9.2404 0 0.00437767 0.00437767 6.57666e-06 43.7767 7290.62 10564.9 
288 8.5354 8.5354 0 0.00416928 0.00416928 3.11929e-06 41.6928 8196.14 11640.8 
328 0.2268 0.2268 0 9.33664e-05 9.33664e-05 -2.32795e-07 11.4862 3747.68 5474.37 
368 1.0598 1.0598 0 0.000214044 0.000214044 -3.93372e-06 4.95816 1509.71 2127.46 
408 1.0442 1.0442 0 0.000207843 0.000207843 -2.13122e-06 4.86494 1497.15 2106.28 
448 1.0264 1.0264 0 0.000206082 0.000206082 -7.50936e-06 4.88023 1502.46 2037.13 
488 1.003 1.003 0 0.000198317 0.000198317 1.6144e-06 4.79229 1423.16 1913.38 
528 0.9384 0.9384 0 0.000186254 0.000186254 -5.28712e-06 4.45986 1328.7 1768.45 
568 0.883 0.883 0 0.00018164 0.00018164 3.46121e-06 4.20174 1281.93 1707.83 
608 0.7928 0.7928 0 0.000183821 0.000183821 -4.47248e-06 3.82881 1227.63 1585.29 
648 0.0032 0.0032 0 -8.48346e-07 -8.48346e-07 8.69026e-08 0.0997535 29.238 32.9278 
688 0.0276 0.0276 0 -1.00248e-05 -1.00248e-05 -1.25179e-06 0.100248 10.8167 23.2076 
728 0.0264 0.0264 0 -9.60904e-06 -9.60904e-06 -9.32239e-07 0.0960904 10.8802 23.0428 
768 0.0344 0.0344 0 -1.32036e-05 -1.32036e-05 -7.17749e-07 0.132036 17.8974 36.3271 
808 0.034 0.034 0 -1.38924e-05 -1.38924e-05 -6.55225e-07 0.138924 23.1123 38.3747 
848 0.032 0.032 0 -1.22975e-05 -1.22975e-05 9.38333e-07 0.122975 21.5254 33.7067 
888 0.0294 0.0294 0 -1.17303e-05 -1.17303e-05 5.49318e-07 0.117303 12.9924 25.4487 
928 0.0246 0.0246 0 -8.68429e-06 -8.68429e-06 -1.04166e-06 0.0868429 11.4804 21.931 
968 0.0542 0.0542 0 1.02918e-05 1.02918e-05 7.32049e-07 2.54053 961.337 1245.11 
1008 0.8256 0.8256 0 0.000178155 0.000178155 3.32314e-06 3.95753 1252.33 1645.47 
1048 0.919 0.919 0 0.000183321 0.000183321 -1.36334e-06 4.39196 1282.81 1702.78 
1088 0.9626 0.9626 0 0.000191474 0.000191474 -1.19044e-07 4.55503 1407.69 1876.76 
1128 1.0204 1.0204 0 0.00020196 0.00020196 -5.1841e-07 4.81304 1464.74 1976.49 
1168 1.0384 1.0384 0 0.000207504 0.000207504 -3.1619e-06 4.90734 1556.71 2094.78 
1208 1.08 1.08 0 0.00021655 0.00021655 -1.7196e-06 5.05303 1567.68 2167.56 
1248 1.056 1.056 0 0.000210045 0.000210045 6.42366e-06 4.91308 1570.46 2212.16 
9 0.36 0.36 0 0.000192248 0.000192248 3.22079e-06 19.6229 6243.01 8591.05 
49 8.5612 8.5612 0 0.00416253 0.00416253 1.7037e-06 41.6253 7927.22 11306.7 
89 9.2634 9.2634 0 0.00439466 0.00439466 -6.46292e-06 43.9466 7430.78 10669.5 
129 9.3808 9.3808 0 0.00438217 0.00438217 1.49791e-06 43.8217 6984.61 10044.9 
169 9.525 9.525 0 0.00443576 0.00443576 -3.25954e-06 44.3576 6956.35 10074 
209 9.4558 9.4558 0 0.00442803 0.00442803 -2.14455e-06 44.2803 7124.34 10321.8 
249 9.2616 9.2616 0 0.00439438 0.00439438 8.20082e-06 43.9438 7359.25 10561.9 
289 8.4988 8.4988 0 0.00415176 0.00415176 -1.9058e-05 41.5176 8191.84 11545.1 
329 0.195 0.195 0 7.53021e-05 7.53021e-05 4.07061e-06 9.55462 3193.03 4531.94 
369 1.0648 1.0648 0 0.00021832 0.00021832 3.47319e-06 4.96579 1540.74 2182.33 
409 1.0328 1.0328 0 0.000197024 0.000197024 1.46745e-06 4.86627 1489.37 2093.74 
449 1.0074 1.0074 0 0.000208497 0.000208497 -1.13124e-06 4.75267 1501.27 2024.83 
489 1 1 0 0.000194344 0.000194344 5.31414e-07 4.76346 1427.64 1951.19 
529 0.947 0.947 0 0.000190563 0.000190563 4.016e-06 4.51515 1311.05 1737.36 
569 0.8738 0.8738 0 0.000179816 0.000179816 -5.8127e-06 4.16978 1272.14 1685.01 
609 0.7702 0.7702 0 0.000183212 0.000183212 -2.974e-06 3.72373 1215.71 1563.36 
649 0.0032 0.0032 0 -8.65512e-07 -8.65512e-07 3.62721e-08 0.100882 13.8807 22.4931 
689 0.027 0.027 0 -1.00637e-05 -1.00637e-05 -1.18404e-06 0.100637 11.763 21.6262 
729 0.0316 0.0316 0 -1.18415e-05 -1.18415e-05 -5.04488e-07 0.118415 16.3472 27.3351 
769 0.0304 0.0304 0 -1.15831e-05 -1.15831e-05 5.15204e-07 0.115831 16.2459 28.749 
809 0.0318 0.0318 0 -1.25147e-05 -1.25147e-05 2.16827e-08 0.125147 20.739 35.0187 
849 0.0256 0.0256 0 -1.02382e-05 -1.02382e-05 8.5493e-07 0.102382 10.4755 22.1262 
889 0.031 0.031 0 -1.12716e-05 -1.12716e-05 5.30732e-07 0.112716 15.0721 26.3414 
929 0.0272 0.0272 0 -1.0044e-05 -1.0044e-05 -2.02039e-07 0.10044 14.26 23.4299 
969 0.06 0.06 0 1.56067e-05 1.56067e-05 3.1054e-07 2.92553 1032.57 1331.17 
1009 0.8422 0.8422 0 0.000188296 0.000188296 4.16607e-07 4.0415 1270.61 1661.36 
1049 0.877 0.877 0 0.000182684 0.000182684 -4.10208e-06 4.20546 1274.24 1688.68 
1089 0.9626 0.9626 0 0.00018659 0.00018659 -6.14995e-06 4.56936 1334.72 1802.76 
1129 1.0152 1.0152 0 0.000203047 0.000203047 2.88441e-06 4.84157 1492.59 2015.81 
1169 1.035 1.035 0 0.0002038 0.0002038 1.05894e-06 4.9636 1548.12 2087.6 
1209 1.0438 1.0438 0 0.000211673 0.000211673 -1.77585e-06 4.92615 1540.14 2152.11 
1249 1.0664 1.0664 0 0.000217566 0.000217566 5.97343e-06 4.85862 1572.64 2238.83 
10 0.409 0.409 0 0.000223614 0.000223614 2.49434e-06 22.2744 7406.5 10006 
50 8.6444 8.6444 0 0.00419897 0.00419897 2.5761e-06 41.9897 8010.08 11439.8 
90 9.2214 9.2214 0 0.00435799 0.00435799 -1.53422e-05 43.5799 7272.86 10369.7 
130 9.5064 9.5064 0 0.00444993 0.00444993 -1.06404e-05 44.4993 7058.98 10204.8 
170 9.5974 9.5974 0 0.00447704 0.00447704 -1.1516e-05 44.7704 6861.66 9953.51 
210 9.4666 9.4666 0 0.00444207 0.00444207 8.32448e-06 44.4207 7205.64 10374.1 
250 9.1302 9.1302 0 0.00433336 0.00433336 -4.8717e-06 43.3336 7409.36 10592.1 
290 8.3798 8.3798 0 0.00411792 0.00411792 2.45405e-06 41.1792 8070.14 11449.7 
330 0.1706 0.1706 0 6.0259e-05 6.0259e-05 1.49348e-06 8.26063 2782.88 4039.85 
370 1.0548 1.0548 0 0.000215822 0.000215822 -1.42298e-06 4.90787 1562.47 2186.36 
410 1.062 1.062 0 0.000216258 0.000216258 -1.00255e-06 4.99167 1603.67 2214.95 
450 1.0052 1.0052 0 0.000195751 0.000195751 3.25518e-06 4.74572 1481.58 1984.22 
490 0.9728 0.9728 0 0.000199787 0.000199787 2.13237e-06 4.59088 1430.33 1891.15 
530 0.9544 0.9544 0 0.000190055 0.000190055 -3.66236e-07 4.55013 1409.76 1858.18 
570 0.8788 0.8788 0 0.000186638 0.000186638 -9.03955e-06 4.1571 1278.29 1714.86 
610 0.799 0.799 0 0.000188244 0.000188244 1.77043e-06 3.81398 1247.66 1617.47 
650 0.0032 0.0032 0 -1.20776e-06 -1.20776e-06 5.21943e-07 0.132085 12.1233 34.8752 
690 0.0238 0.0238 0 -8.62285e-06 -8.62285e-06 4.50948e-07 0.0862285 8.95523 24.9717 
730 0.0332 0.0332 0 -1.29793e-05 -1.29793e-05 8.98341e-08 0.129793 14.0586 32.7623 
770 0.0258 0.0258 0 -1.02504e-05 -1.02504e-05 -8.20186e-07 0.102504 11.4424 24.6802 
810 0.032 0.032 0 -1.17089e-05 -1.17089e-05 8.01685e-07 0.117089 13.4428 28.8494 
850 0.0316 0.0316 0 -1.24447e-05 -1.24447e-05 -3.89662e-07 0.124447 13.0136 26.1745 
890 0.0264 0.0264 0 -1.05355e-05 -1.05355e-05 3.38432e-07 0.105355 17.8459 28.5581 
930 0.0242 0.0242 0 -8.98248e-06 -8.98248e-06 -4.84501e-07 0.0898248 9.2283 23.148 
970 0.1668 0.1668 0 4.51294e-05 4.51294e-05 -1.01629e-06 3.30504 1207.18 1503.12 
1010 0.8188 0.8188 0 0.000180916 0.000180916 -1.99132e-06 3.93704 1254.11 1639.21 
1050 0.9098 0.9098 0 0.000187426 0.000187426 -2.79161e-06 4.34313 1336.59 1735.19 
1090 0.9648 0.9648 0 0.000192415 0.000192415 5.36116e-07 4.61257 1382.22 1837.21 
1130 1.0014 1.0014 0 0.000199201 0.000199201 4.43148e-06 4.81581 1508.37 2040.75 
1170 1.0536 1.0536 0 0.000208008 0.000208008 8.25455e-07 4.98693 1510.94 2091.67 
1210 1.0412 1.0412 0 0.000200198 0.000200198 -3.35587e-06 4.88243 1486.44 2066.13 
1250 1.0392 1.0392 0 0.000206042 0.000206042 -5.83784e-06 4.74168 1507.76 2143.92 
11 0.4568 0.4568 0 0.000259412 0.000259412 3.55321e-06 25.5444 8263.72 11424.3 
51 8.5784 8.5784 0 0.00415687 0.00415687 2.46853e-06 41.5687 7814.04 11149.5 
91 9.226 9.226 0 0.00436583 0.00436583 -7.95078e-06 43.6583 7284.89 10437.7 
131 9.4548 9.4548 0 0.00442986 0.00442986 1.87877e-05 44.2986 6932.96 9963.54 
171 9.6126 9.6126 0 0.00449641 0.00449641 -2.05313e-06 44.9641 7090.49 10160.6 
211 9.4742 9.4742 0 0.00445365 0.00445365 1.19878e-05 44.5365 7108.18 10314.8 
251 9.173 9.173 0 0.00437429 0.00437429 -2.13662e-05 43.7429 7534.79 10763.1 
291 8.419 8.419 0 0.00411741 0.00411741 2.33612e-06 41.1741 8169.85 11601.8 
331 0.1508 0.1508 0 4.8642e-05 4.8642e-05 2.13869e-06 7.37936 2421.66 3445.19 
371 1.0614 1.0614 0 0.000217484 0.000217484 -4.6023e-07 4.94715 1598.09 2234.2 
411 1.037 1.037 0 0.000199965 0.000199965 1.57066e-06 4.90322 1517.64 2093.04 
451 1.0082 1.0082 0 0.000203507 0.000203507 2.18952e-06 4.76582 1453.23 1985.91 
491 0.9874 0.9874 0 0.000191504 0.000191504 4.14721e-07 4.67039 1370.73 1842.49 
531 0.9412 0.9412 0 0.000187312 0.000187312 -1.61171e-08 4.47934 1352.04 1801.88 
571 0.8742 0.8742 0 0.000186978 0.000186978 4.91384e-07 4.09636 1310.3 1719.54 
611 0.7932 0.7932 0 0.000184693 0.000184693 1.2222e-06 3.81003 1232.42 1592.93 
651 0.002 0.002 0 -5.19716e-07 -5.19716e-07 -1.11062e-08 0.0540934 -0.191871 17.1712 
691 0.0262 0.0262 0 -9.78467e-06 -9.78467e-06 -3.50679e-07 0.0978467 13.4531 28.5812 
731 0.03 0.03 0 -1.18108e-05 -1.18108e-05 1.06351e-07 0.118108 11.6602 28.761 
771 0.0304 0.0304 0 -1.20745e-05 -1.20745e-05 2.58105e-07 0.120745 17.4495 29.6912 
811 0.0252 0.0252 0 -9.38277e-06 -9.38277e-06 5.04448e-07 0.0938277 13.7461 23.3015 
851 0.031 0.031 0 -1.12468e-05 -1.12468e-05 1.81937e-08 0.112468 15.1637 25.7281 
891 0.028 0.028 0 -1.08089e-05 -1.08089e-05 4.00878e-07 0.108089 12.4001 32.7659 
931 0.0278 0.0278 0 -9.9626e-06 -9.9626e-06 3.07754e-07 0.099626 7.56137 20.7541 
971 0.1598 0.1598 0 4.23207e-05 4.23207e-05 1.37764e-07 3.11121 1109.24 1406.68 
1011 0.8198 0.8198 0 0.00017999 0.00017999 -1.72867e-06 3.91702 1226.29 1610.94 
1051 0.9078 0.9078 0 0.000179991 0.000179991 5.25662e-08 4.32451 1259.38 1679.68 
1091 0.9528 0.9528 0 0.000198427 0.000198427 1.25991e-08 4.54355 1412.54 1855.01 
1131 1.0042 1.0042 0 0.000192827 0.000192827 1.88952e-08 4.81444 1414.32 1900.98 
1171 1.0254 1.0254 0 0.00020856 0.00020856 -1.00732e-07 4.84431 1510.01 2045.64 
1211 1.0566 1.0566 0 0.000205129 0.000205129 -3.39649e-06 4.9722 1507.23 2139.82 
1251 1.0864 1.0864 0 0.000227382 0.000227382 4.27287e-06 5.00905 1634 2303.4 
12 0.5054 0.5054 0 0.000286533 0.000286533 -4.50222e-07 28.3743 8658.91 11942 
52 8.6746 8.6746 0 0.00420818 0.00420818 -2.50431e-06 42.0818 7888.78 11249.9 
92 9.2376 9.2376 0 0.00438406 0.00438406 1.67223e-06 43.8406 7312.53 10476.5 
132 9.485 9.485 0 0.00445126 0.00445126 1.65625e-05 44.5126 7078.3 10184.3 
172 9.6024 9.6024 0 0.0044873 0.0044873 -6.62084e-06 44.873 7041.69 10113.5 
212 9.4476 9.4476 0 0.00442185 0.00442185 -3.11297e-07 44.2185 7024.1 10096.6 
252 9.1558 9.1558 0 0.00433791 0.00433791 2.66075e-06 43.3791 7351.92 10553.7 
292 8.3674 8.3674 0 0.00412233 0.00412233 9.88071e-07 41.2233 8261.78 11681 
332 0.126 0.126 0 3.36961e-05 3.36961e-05 1.21876e-07 5.89131 1889.16 2804.57 
372 1.0564 1.0564 0 0.000212008 0.000212008 -4.54444e-06 4.87621 1588.56 2225.16 
412 1.0442 1.0442 0 0.000208309 0.000208309 3.35626e-06 4.89654 1513.3 2098.32 
452 1.0128 1.0128 0 0.00019871 0.00019871 -2.48203e-06 4.83987 1501.07 2037.7 
492 0.9958 0.9958 0 0.000203153 0.000203153 -3.67047e-06 4.69314 1451.78 1926.28 
532 0.9358 0.9358 0 0.000180119 0.000180119 8.40831e-07 4.50926 1296.76 1754.61 
572 0.868 0.868 0 0.000178614 0.000178614 1.61272e-06 4.1407 1266.82 1652.2 
612 0.7976 0.7976 0 0.000185812 0.000185812 2.35459e-06 3.80992 1251.2 1608.96 