ITEM: TIMESTEP
20000
ITEM: NUMBER OF SURFS
1272
ITEM: BOX BOUNDS oo rr pp
0 0.3
0 0.3
-0.5 0.5
ITEM: SURFS id f_1[1] f_1[2] f_1[3] f_1[4] f_1[5] f_1[6] f_1[7] f_1[8] f_1[9] 
1 0.11 0.11 0 3.36049e-05 3.36049e-05 1.36593e-05 4.88007 1961.26 2974.55 
41 8.38 8.38 0 0.0041846 0.0041846 -3.73545e-06 41.846 7605.36 11300.2 
81 9.09 9.09 0 0.00434992 0.00434992 4.81214e-05 43.4992 8155.39 11556.9 
121 9.72 9.72 0 0.00450146 0.00450146 0.000123035 45.0146 6992.41 10372.6 
161 8.98 8.98 0 0.00421628 0.00421628 -6.02703e-05 42.1628 6468.04 9544.27 
201 9.38 9.38 0 0.00447947 0.00447947 -5.86405e-05 44.7947 7908.1 11305 
241 9.47 9.47 0 0.00450729 0.00450729 8.41926e-05 45.0729 7461.26 10800.1 
281 8.42 8.42 0 0.004034 0.004034 6.99883e-06 40.34 7826.17 10941.8 
321 0.44 0.44 0 0.000224337 0.000224337 1.72462e-05 22.4819 5677.76 8771.48 
361 1.08 1.08 0 0.00017174 0.00017174 -3.83868e-06 4.67183 1046.36 1631.4 
401 1.02 1.02 0 0.000187409 0.000187409 4.38197e-05 4.84754 1241.41 1629.51 
441 1.14 1.14 0 0.000310261 0.000310261 -3.94495e-05 5.42797 2183.51 2771.65 
481 1.01 1.01 0 0.000195825 0.000195825 -3.19119e-06 4.89153 1532.14 2090.6 
521 0.86 0.86 0 0.000170544 0.000170544 5.55298e-05 4.13498 1077.47 1452.04 
561 0.78 0.78 0 0.000163458 0.000163458 4.58196e-06 3.81947 1002.32 1396.85 
601 0.67 0.67 0 0.000147465 0.000147465 2.66539e-05 3.10458 901.679 1223.47 
641 0.04 0.04 0 7.79579e-06 7.79579e-06 1.78915e-06 1.71826 637.727 825.152 
681 0.03 0.03 0 -1.33868e-05 -1.33868e-05 -3.18589e-06 0.133868 17.7444 17.9717 
721 0.05 0.05 0 -2.4083e-05 -2.4083e-05 3.67989e-06 0.24083 -45.1901 -38.1163 
761 0.04 0.04 0 -1.78661e-05 -1.78661e-05 4.67164e-06 0.178661 20.0268 77.5762 
801 0.03 0.03 0 -1.13716e-05 -1.13716e-05 1.98894e-06 0.113716 8.65969 31.0235 
841 0.04 0.04 0 -1.4628e-05 -1.4628e-05 -1.49289e-06 0.14628 5.86341 14.4147 
881 0.01 0.01 0 -2.01109e-06 -2.01109e-06 1.13316e-06 0.0201109 -9.05444 -8.80531 
921 0.05 0.05 0 -1.29598e-05 -1.29598e-05 -7.00592e-07 0.129598 13.2567 6.29725 
961 0 0 0 0 0 0 0 0 0 
1001 0.83 0.83 0 0.000174847 0.000174847 3.82484e-05 3.99947 1178.2 1540.58 
1041 0.78 0.78 0 0.000165271 0.000165271 7.21631e-06 3.75808 1141.94 1400.88 
1081 0.97 0.97 0 0.000191523 0.000191523 -2.13648e-05 4.93189 1428.5 1934.58 
1121 1.22 1.22 0 0.000275117 0.000275117 4.13265e-06 6.17516 1852.06 2465.97 
1161 1.1 1.1 0 0.000240028 0.000240028 3.56084e-05 5.01785 1549.16 2077.28 
1201 1.24 1.24 0 0.000200777 0.000200777 -1.71935e-05 5.90955 1623.63 2263.04 
1241 1.04 1.04 0 0.000250088 0.000250088 -3.6725e-05 5.22813 1879.93 2461.19 
2 0.19 0.19 0 5.93919e-05 5.93919e-05 1.6575e-05 9.41991 3450.83 4288.18 
42 8.93 8.93 0 0.00434763 0.00434763 2.59188e-05 43.4763 8603.08 12296.6 
82 9.48 9.48 0 0.00456261 0.00456261 8.62458e-06 45.6261 7666.17 10775.5 
122 9.5 9.5 0 0.00442603 0.00442603 4.04385e-05 44.2603 7510.26 10949.2 
162 9.28 9.28 0 0.00430463 0.00430463 7.29813e-05 43.0463 5962.14 9025.68 
202 9.27 9.27 0 0.00434951 0.00434951 0.000122187 43.4951 6454.9 9805.78 
242 9.29 9.29 0 0.00440048 0.00440048 7.83705e-05 44.0048 6871.93 9996.22 
282 8.76 8.76 0 0.00428455 0.00428455 -6.7887e-05 42.8455 7338.23 10908.9 
322 0.37 0.37 0 0.000203428 0.000203428 -7.58992e-06 20.9234 6072.9 10479.5 
362 1.06 1.06 0 0.000220122 0.000220122 1.59766e-05 4.94073 1396.29 1902.5 
402 1.11 1.11 0 0.000196176 0.000196176 1.89244e-05 5.04543 1478.12 1770.72 
442 0.99 0.99 0 0.000201056 0.000201056 -2.71358e-05 4.71995 1501.98 1999.91 
482 1.03 1.03 0 0.000285833 0.000285833 -3.91479e-06 4.63594 1677.54 2333.76 
522 1.1 1.1 0 0.000213733 0.000213733 1.99199e-05 5.1986 1431.65 1846.64 
562 0.82 0.82 0 0.00020198 0.00020198 2.95862e-05 3.99419 1315.08 1599.62 
602 0.93 0.93 0 0.000217212 0.000217212 3.00432e-05 4.00987 1234.57 1603.6 
642 0.01 0.01 0 3.71081e-06 3.71081e-06 -1.86414e-06 0.59391 154.52 329.977 
682 0.01 0.01 0 -3.48512e-06 -3.48512e-06 -7.9097e-07 0.0348512 0.387163 13.788 
722 0.04 0.04 0 -1.24388e-05 -1.24388e-05 -3.94779e-06 0.124388 9.41139 118.828 
762 0.05 0.05 0 -1.90488e-05 -1.90488e-05 1.02049e-05 0.190488 -21.7772 9.71984 
802 0.04 0.04 0 -2.04039e-05 -2.04039e-05 -6.7173e-06 0.204039 24.7031 30.6833 
842 0.01 0.01 0 -6.66308e-06 -6.66308e-06 -6.28167e-07 0.0666308 -0.875957 7.32482 
882 0.05 0.05 0 -1.92529e-05 -1.92529e-05 -1.18621e-05 0.192529 37.4096 85.4252 
922 0.02 0.02 0 -6.36903e-06 -6.36903e-06 -2.26136e-06 0.0636903 -3.58762 -0.919417 
962 0 0 0 0 0 0 0 0 0 
1002 0.71 0.71 0 0.000203043 0.000203043 1.14721e-05 3.30482 1122.88 1553.33 
1042 0.86 0.86 0 0.000169694 0.000169694 -1.30603e-06 4.34741 1106.45 1528.21 
1082 0.99 0.99 0 0.000210062 0.000210062 -1.07964e-05 4.49083 1144.49 1520.39 
1122 0.89 0.89 0 0.000193165 0.000193165 -1.55412e-05 4.26299 1246.44 1794.76 
1162 0.99 0.99 0 0.00020685 0.00020685 -4.82827e-05 4.27902 1174.92 1492.22 
1202 0.79 0.79 0 0.000136827 0.000136827 2.06326e-05 3.5929 1061.32 1420.17 
1242 1.24 1.24 0 0.000212963 0.000212963 -9.46954e-06 6.03855 1448.35 2104.85 
3 0.14 0.14 0 3.2691e-05 3.2691e-05 1.90112e-05 6.28836 1189.24 2516.19 
43 8.58 8.58 0 0.00414514 0.00414514 0.000111771 41.4514 9186.87 12657.7 
83 9 9 0 0.00424143 0.00424143 -4.06606e-05 42.4143 7633.44 11228.6 
123 9.37 9.37 0 0.00431319 0.00431319 -4.34772e-05 43.1319 5884.04 9058.1 
163 9.81 9.81 0 0.00448087 0.00448087 -6.55404e-05 44.8087 6858.84 10200.3 
203 9.26 9.26 0 0.004426 0.004426 6.21944e-05 44.26 7338.06 10136 
243 9.18 9.18 0 0.00425079 0.00425079 -5.48507e-06 42.5079 7118.94 10695.2 
283 8.44 8.44 0 0.00420144 0.00420144 3.06231e-05 42.0144 9163.13 12381.6 
323 0.37 0.37 0 0.000184065 0.000184065 -2.37623e-05 17.9634 6798.59 11592.6 
363 1.23 1.23 0 0.00025569 0.00025569 3.14255e-05 5.74973 1995.48 2746.74 
403 1.16 1.16 0 0.000239761 0.000239761 -2.75492e-05 5.63727 1987.21 2457.11 
443 1.05 1.05 0 0.000243022 0.000243022 7.57377e-06 5.13533 1919.28 2570.28 
483 0.91 0.91 0 0.000166845 0.000166845 7.38817e-07 4.34444 1384.99 1889.17 
523 1.16 1.16 0 0.00019636 0.00019636 -2.61359e-06 5.69908 1523.69 2022.61 
563 0.87 0.87 0 0.000177262 0.000177262 1.08831e-05 3.95318 1381.25 1678.66 
603 0.74 0.74 0 0.000182221 0.000182221 1.41155e-05 3.64137 1457.43 1943.48 
643 0.01 0.01 0 2.33372e-06 2.33372e-06 -9.80057e-07 0.309029 271.882 392.104 
683 0.01 0.01 0 -4.33192e-06 -4.33192e-06 1.72634e-06 0.0433192 -1.46385 42.2269 
723 0.05 0.05 0 -2.33977e-05 -2.33977e-05 -3.32386e-06 0.233977 69.0025 74.927 
763 0.01 0.01 0 -4.16935e-06 -4.16935e-06 -4.26288e-06 0.0416935 17.1441 48.9497 
803 0.02 0.02 0 -4.60182e-06 -4.60182e-06 -2.84369e-06 0.0460182 -2.78386 -1.04754 
843 0.01 0.01 0 -1.99665e-06 -1.99665e-06 -3.0497e-06 0.0199665 -4.93458 -7.77369 
883 0.04 0.04 0 -1.04995e-05 -1.04995e-05 -1.43125e-06 0.104995 44.2903 46.4201 
923 0.02 0.02 0 -1.40687e-05 -1.40687e-05 -3.40064e-06 0.140687 26.6185 42.14 
963 0.03 0.03 0 -5.34972e-07 -5.34972e-07 -4.23959e-07 1.23157 479.803 755.843 
1003 0.98 0.98 0 0.000192687 0.000192687 5.02359e-06 4.30466 1456.26 1772.28 
1043 0.88 0.88 0 0.000180758 0.000180758 -1.24797e-05 4.19409 1365.48 1851.9 
1083 0.81 0.81 0 0.00016504 0.00016504 3.66461e-05 3.81166 1195.49 1535.84 
1123 0.94 0.94 0 0.000185363 0.000185363 5.3517e-06 4.6145 1274.07 1834.89 
1163 1.03 1.03 0 0.000254801 0.000254801 6.37337e-07 4.9106 1801.53 2228.23 
1203 0.98 0.98 0 0.000233534 0.000233534 -3.00943e-05 4.63147 1400.3 1884.97 
1243 1.11 1.11 0 0.000233353 0.000233353 -1.03518e-06 4.91482 1607.23 2198.1 
4 0.15 0.15 0 6.18228e-05 6.18228e-05 3.09268e-06 9.10253 2163.81 2686.37 
44 8.2 8.2 0 0.00405524 0.00405524 -8.51576e-05 40.5524 7824.82 11288.6 
84 9.09 9.09 0 0.00434282 0.00434282 -0.000143104 43.4282 7249.35 10498.1 
124 9.86 9.86 0 0.00470361 0.00470361 -3.9507e-05 47.0361 8156.83 10799.5 
164 9.85 9.85 0 0.00461971 0.00461971 0.00013992 46.1971 7314.15 10188.8 
204 9.65 9.65 0 0.004495 0.004495 -0.000104363 44.95 6190 9263.65 
244 9.44 9.44 0 0.00456332 0.00456332 4.37188e-05 45.6332 8543.7 11124 
284 8.47 8.47 0 0.00409618 0.00409618 -5.79856e-05 40.9618 8432.19 11805.8 
324 0.28 0.28 0 0.00014188 0.00014188 -1.75861e-08 14.8322 3820.58 6245.04 
364 1.08 1.08 0 0.000217475 0.000217475 3.87022e-05 5.13595 1274.87 2026.23 
404 0.92 0.92 0 0.000190479 0.000190479 2.98244e-05 4.67521 1792.86 2232.52 
444 0.97 0.97 0 0.000179406 0.000179406 -1.22495e-05 4.61086 1400.01 1864.17 
484 1.14 1.14 0 0.000274331 0.000274331 8.80211e-07 5.57256 2086.65 2694.42 
524 1.01 1.01 0 0.000197631 0.000197631 4.27355e-07 4.6023 1667.51 2100.34 
564 0.7 0.7 0 0.000182971 0.000182971 -5.27775e-06 3.72925 1334.64 1563.98 
604 0.76 0.76 0 0.000181549 0.000181549 -1.26547e-06 3.61004 1304.79 1613.27 
644 0.03 0.03 0 -5.01374e-06 -5.01374e-06 -4.36296e-06 1.33888 -163.413 -234.119 
684 0.02 0.02 0 -8.00566e-06 -8.00566e-06 2.88516e-06 0.0800566 -5.36831 2.4787 
724 0 0 0 0 0 0 0 0 0 
764 0.03 0.03 0 -7.87724e-06 -7.87724e-06 -6.10263e-06 0.0787724 51.2649 101.801 
804 0.01 0.01 0 -5.70039e-06 -5.70039e-06 -8.31592e-06 0.0570039 16.538 10.1239 
844 0.04 0.04 0 -1.40107e-05 -1.40107e-05 4.46975e-06 0.140107 6.15943 17.7144 
884 0 0 0 0 0 0 0 0 0 
924 0.02 0.02 0 -6.28796e-06 -6.28796e-06 -8.33285e-07 0.0628796 16.5797 26.5956 
964 0.04 0.04 0 -5.04326e-06 -5.04326e-06 5.91636e-08 2.31715 623.585 764.809 
1004 0.43 0.43 0 7.83812e-05 7.83812e-05 8.05094e-06 2.10337 432.951 545.714 
1044 0.89 0.89 0 0.000190957 0.000190957 -2.40383e-05 4.82245 1192.9 1509.65 
1084 1.02 1.02 0 0.000182667 0.000182667 -2.46831e-05 4.7159 1219.47 1574.88 
1124 1.05 1.05 0 0.000228781 0.000228781 -3.76267e-05 4.94876 1666.76 2085.61 
1164 0.95 0.95 0 0.000203952 0.000203952 -1.72753e-05 4.55278 1554.96 1828.48 
1204 1.08 1.08 0 0.000223491 0.000223491 -2.59923e-05 4.75531 1103.48 1931.55 
1244 1.08 1.08 0 0.000228132 0.000228132 9.62124e-06 4.76076 1404.52 1928.08 
5 0.25 0.25 0 0.000125411 0.000125411 9.97537e-06 12.9154 5705.77 7430.65 
45 8.55 8.55 0 0.00412964 0.00412964 7.33877e-05 41.2964 7993.44 11750.5 
85 8.78 8.78 0 0.00414942 0.00414942 -1.16218e-05 41.4942 6788.57 10182.8 
125 9.26 9.26 0 0.00435597 0.00435597 -0.000104703 43.5597 7283.14 11045.6 
165 9.63 9.63 0 0.0043895 0.0043895 1.32383e-05 43.895 6494.19 9344.43 
205 9.5 9.5 0 0.00440495 0.00440495 2.37632e-05 44.0495 6752.69 10085.8 
245 8.98 8.98 0 0.004355 0.004355 -2.61209e-05 43.55 7372.89 10867.5 
285 8.64 8.64 0 0.00429113 0.00429113 1.63539e-05 42.9113 8176 11497 
325 0.27 0.27 0 0.000131454 0.000131454 -2.23328e-06 14.5082 4327.42 5738.15 
365 0.97 0.97 0 0.000199192 0.000199192 -3.09419e-05 4.45419 1459.52 1965.38 
405 1.07 1.07 0 0.000199225 0.000199225 -1.63861e-05 4.8778 1213.61 1582.54 
445 0.99 0.99 0 0.00019561 0.00019561 1.25211e-05 5.03709 1546.73 1926.27 
485 0.82 0.82 0 0.000184238 0.000184238 -2.44031e-05 3.88372 1449.85 1889.8 
525 0.92 0.92 0 0.000177384 0.000177384 1.23145e-05 4.17671 1340.95 1721.87 
565 0.92 0.92 0 0.000210937 0.000210937 -1.77467e-06 4.16341 1432.3 1768.84 
605 0.95 0.95 0 0.000248951 0.000248951 -1.01373e-05 4.34281 1352.65 2003.62 
645 0.03 0.03 0 -2.40013e-06 -2.40013e-06 -2.1468e-06 0.580665 -23.0223 112.288 
685 0.01 0.01 0 -6.38254e-06 -6.38254e-06 8.3989e-07 0.0638254 -7.23444 -7.75932 
725 0.03 0.03 0 -2.181e-05 -2.181e-05 4.50539e-06 0.2181 2.30564 16.0017 
765 0.01 0.01 0 -1.62612e-06 -1.62612e-06 -2.95957e-06 0.0162612 33.7419 32.8906 
805 0.02 0.02 0 -9.67525e-06 -9.67525e-06 -1.97131e-06 0.0967525 -4.68727 1.5562 
845 0.06 0.06 0 -2.90294e-05 -2.90294e-05 1.31289e-05 0.290294 20.9184 99.1507 
885 0.04 0.04 0 -1.67346e-05 -1.67346e-05 -2.41685e-06 0.167346 33.9353 45.2342 
925 0.02 0.02 0 -9.50839e-06 -9.50839e-06 6.94607e-06 0.0950839 41.6528 43.6276 
965 0.02 0.02 0 2.05317e-06 2.05317e-06 3.88707e-06 0.393274 145.819 94.6064 
1005 0.93 0.93 0 0.000230277 0.000230277 2.33859e-05 4.62419 1447.06 1884.93 
1045 0.88 0.88 0 0.000190849 0.000190849 -1.21153e-05 4.27359 1234.96 1669.59 
1085 0.94 0.94 0 0.000166496 0.000166496 5.3052e-06 4.69719 1398.17 1537.89 
1125 1.04 1.04 0 0.00016978 0.00016978 4.16038e-05 4.85166 1295.24 1657.99 
1165 1.26 1.26 0 0.000236858 0.000236858 8.77284e-05 5.95515 1889.84 2635.01 
1205 1.07 1.07 0 0.000165339 0.000165339 4.51094e-05 4.88304 1416.66 2079.51 
1245 1.04 1.04 0 0.000203944 0.000203944 -4.68931e-05 4.64349 1345.44 2215.01 
6 0.26 0.26 0 0.000128395 0.000128395 2.09271e-05 12.6002 6116.72 8983.96 
46 8.03 8.03 0 0.00391052 0.00391052 6.22425e-05 39.1052 7692.53 11418.6 
86 9.2 9.2 0 0.00431946 0.00431946 5.40832e-05 43.1946 7412.04 10395.3 
126 9.81 9.81 0 0.00459601 0.00459601 -2.35042e-05 45.9601 7224.5 10623.6 
166 10 10 0 0.00469352 0.00469352 4.15063e-05 46.9352 7110.96 10606.8 
206 9.67 9.67 0 0.00439321 0.00439321 2.76266e-05 43.9321 7062.13 10484.5 
246 9.32 9.32 0 0.00452341 0.00452341 8.02527e-05 45.2341 8528.12 12118.6 
286 9.01 9.01 0 0.00455686 0.00455686 3.11518e-05 45.5686 9209.59 12899.4 
326 0.23 0.23 0 0.000115131 0.000115131 -1.79012e-05 13.2284 4319.16 5508.1 
366 1.07 1.07 0 0.000260204 0.000260204 3.57062e-05 5.12378 1903.45 2588.04 
406 1.13 1.13 0 0.000214285 0.000214285 -4.73329e-06 5.49185 1667.14 2256.84 
446 1.13 1.13 0 0.000245755 0.000245755 -1.23415e-05 5.3552 1632.2 2217.72 
486 1.01 1.01 0 0.000196593 0.000196593 -2.21727e-05 4.81338 1269.59 1719.65 
526 0.89 0.89 0 0.000198665 0.000198665 -8.02094e-06 4.28446 1378.52 1984.46 
566 0.97 0.97 0 0.000183069 0.000183069 3.78341e-05 5.00777 1439.77 2034.97 
606 0.9 0.9 0 0.000200539 0.000200539 3.49252e-05 4.19737 1523.85 1860.57 
646 0 0 0 0 0 0 0 0 0 
686 0.05 0.05 0 -2.63323e-05 -2.63323e-05 4.18135e-06 0.263323 56.4396 69.9975 
726 0.03 0.03 0 -1.56011e-05 -1.56011e-05 -4.42646e-06 0.156011 6.89393 31.1498 
766 0.02 0.02 0 -6.19591e-06 -6.19591e-06 6.09694e-06 0.0619591 113.642 120.74 
806 0.02 0.02 0 -6.73777e-06 -6.73777e-06 1.35842e-06 0.0673777 -0.671986 15.0878 
846 0.04 0.04 0 -2.14409e-05 -2.14409e-05 -8.02883e-06 0.214409 11.549 31.0286 
886 0.06 0.06 0 -2.22733e-05 -2.22733e-05 -4.9098e-06 0.222733 28.7145 81.2374 
926 0.01 0.01 0 -2.51449e-06 -2.51449e-06 0 0.0251449 0 0 
966 0.03 0.03 0 5.29186e-06 5.29186e-06 -7.48474e-07 0.732908 -8.21412 -80.3337 
1006 0.85 0.85 0 0.000178032 0.000178032 -1.15641e-05 4.19125 1195.2 1534.46 
1046 0.83 0.83 0 0.000165152 0.000165152 2.10037e-05 3.72731 1322.74 1561.95 
1086 0.82 0.82 0 0.000145002 0.000145002 3.52476e-05 4.13665 1092.81 1442.37 
1126 1.02 1.02 0 0.000184038 0.000184038 4.39897e-05 5.18072 1677.85 2166.93 
1166 1.06 1.06 0 0.000182825 0.000182825 4.24834e-05 5.14846 1550.5 1959.04 
1206 1.21 1.21 0 0.000277043 0.000277043 -7.74689e-06 5.62596 1772.66 2682.9 
1246 1.11 1.11 0 0.000190872 0.000190872 -9.83875e-06 5.11498 1656.27 2411.43 
7 0.26 0.26 0 0.000115106 0.000115106 4.90241e-06 12.8474 4628.28 6362.97 
47 8.62 8.62 0 0.00421239 0.00421239 -1.51608e-05 42.1239 8655.59 12350.1 
87 9.46 9.46 0 0.00448025 0.00448025 -0.000152646 44.8025 8380.68 12286.4 
127 9.21 9.21 0 0.00429168 0.00429168 8.68977e-05 42.9168 6418.3 9308.72 
167 9.06 9.06 0 0.0042264 0.0042264 -0.000118676 42.264 6481.52 9402.96 
207 9.62 9.62 0 0.00442946 0.00442946 5.42857e-05 44.2946 6521.08 9197.44 
247 9.77 9.77 0 0.00447013 0.00447013 -0.000120166 44.7013 6686.09 10204 
287 7.92 7.92 0 0.00400117 0.00400117 -3.42738e-05 40.0117 8355.03 11594.5 
327 0.2 0.2 0 9.54164e-05 9.54164e-05 1.25756e-05 9.42873 4994.26 6742.49 
367 1.07 1.07 0 0.000255346 0.000255346 3.56665e-05 4.98566 1476.26 2113.51 
407 1.21 1.21 0 0.000182037 0.000182037 -1.0571e-06 5.95481 1632.81 2304.97 
447 1.11 1.11 0 0.000225944 0.000225944 -2.38755e-07 5.33004 1860.94 2478.14 
487 1.14 1.14 0 0.000180045 0.000180045 1.66108e-05 5.39367 1546.91 2105.91 
527 0.73 0.73 0 0.000112144 0.000112144 -2.41595e-06 3.44946 693.696 1053.29 
567 1.05 1.05 0 0.000192296 0.000192296 1.78643e-05 4.94317 1369.12 1592.01 
607 0.84 0.84 0 0.000201735 0.000201735 -1.11176e-05 3.77431 1282.66 1911.5 
647 0.02 0.02 0 -8.99112e-06 -8.99112e-06 2.56028e-06 1.08129 68.7968 201.207 
687 0.01 0.01 0 -3.09903e-06 -3.09903e-06 -6.70176e-07 0.0309903 2.88095 20.1688 
727 0.04 0.04 0 -2.41053e-05 -2.41053e-05 1.55295e-06 0.241053 48.2929 49.82 
767 0.02 0.02 0 -8.27026e-06 -8.27026e-06 0 0.0827026 0 0 
807 0.03 0.03 0 -7.67652e-06 -7.67652e-06 4.10409e-06 0.0767652 15.6059 13.2728 
847 0.03 0.03 0 -9.9401e-06 -9.9401e-06 -4.08307e-06 0.099401 22.6577 20.8198 
887 0.02 0.02 0 -8.54359e-06 -8.54359e-06 3.58205e-06 0.0854359 16.6235 17.8252 
927 0.01 0.01 0 -2.97207e-06 -2.97207e-06 -1.77977e-06 0.0297207 4.06457 5.54021 
967 0.05 0.05 0 8.07653e-06 8.07653e-06 2.12563e-06 1.51934 711.681 1044.38 
1007 0.91 0.91 0 0.000196879 0.000196879 -3.98078e-05 4.29411 1466.47 1939.22 
1047 0.76 0.76 0 0.000190074 0.000190074 3.0401e-05 3.70803 1256.16 1761.62 
1087 1.09 1.09 0 0.000224027 0.000224027 -4.24615e-05 5.2481 1712.81 2145.92 
1127 0.91 0.91 0 0.000146968 0.000146968 3.34783e-05 4.35569 1094.91 1450.71 
1167 0.99 0.99 0 0.000186924 0.000186924 -1.3915e-05 4.84533 1815.87 2151.6 
1207 1.14 1.14 0 0.000220292 0.000220292 2.99599e-05 4.80681 1378.53 1860.6 
1247 1.05 1.05 0 0.00019567 0.00019567 -3.38765e-05 4.57927 1526.43 2162.66 
8 0.37 0.37 0 0.000217387 0.000217387 2.64821e-05 18.8271 8816.08 10224.8 
48 8.97 8.97 0 0.00451261 0.00451261 -2.07666e-05 45.1261 8889.93 12554.4 
88 9.06 9.06 0 0.00424844 0.00424844 -5.83113e-05 42.4844 7719.76 11242.1 
128 9.41 9.41 0 0.00427373 0.00427373 -2.96324e-06 42.7373 6371.35 9413.12 
168 9.12 9.12 0 0.00421336 0.00421336 5.40173e-05 42.1336 7260.52 10256.5 
208 9.49 9.49 0 0.00454065 0.00454065 3.64137e-06 45.4065 6933.77 9984.32 
248 9.35 9.35 0 0.00448665 0.00448665 -9.66384e-05 44.8665 8099.34 11552 
288 8.22 8.22 0 0.00396564 0.00396564 -4.94093e-05 39.6564 7526.24 10953.9 
328 0.15 0.15 0 5.18922e-05 5.18922e-05 -3.2064e-06 6.6976 1339.08 3456.64 
368 1.05 1.05 0 0.000191066 0.000191066 2.27687e-05 4.8558 1482.73 1956.63 
408 1.06 1.06 0 0.000198284 0.000198284 1.29438e-05 5.17988 2006.92 2605.69 
448 1 1 0 0.00017605 0.00017605 1.5085e-06 4.84319 1272 1872.11 
488 1.07 1.07 0 0.000247793 0.000247793 -2.86202e-05 5.26015 2038.15 2610.2 
528 1.04 1.04 0 0.000221926 0.000221926 -4.01931e-05 4.99534 1591.95 2022.84 
568 0.92 0.92 0 0.000215764 0.000215764 2.81168e-08 4.42501 1438.49 2200.16 
608 0.72 0.72 0 0.000138867 0.000138867 -7.45132e-06 3.26386 932.818 1200.26 
648 0.02 0.02 0 -4.84513e-06 -4.84513e-06 2.64555e-07 0.571459 150.871 325.398 
688 0.03 0.03 0 -7.0376e-06 -7.0376e-06 1.0287e-06 0.070376 8.25622 -17.6548 
728 0.03 0.03 0 -1.26946e-05 -1.26946e-05 1.65761e-07 0.126946 2.52817 24.5109 
768 0.01 0.01 0 -4.64635e-06 -4.64635e-06 -5.94948e-08 0.0464635 -1.15351 9.03639 
808 0.02 0.02 0 -1.07266e-05 -1.07266e-05 2.27021e-06 0.107266 34.3677 43.6169 
848 0.03 0.03 0 -7.43784e-06 -7.43784e-06 1.62706e-06 0.0743784 0.0403049 -0.959255 
888 0.05 0.05 0 -1.24572e-05 -1.24572e-05 -6.37192e-07 0.124572 34.5645 49.5253 
928 0.03 0.03 0 -1.33588e-05 -1.33588e-05 -3.72764e-06 0.133588 25.218 36.235 
968 0.05 0.05 0 1.26477e-05 1.26477e-05 5.85442e-07 2.29387 977.488 1044.78 
1008 0.76 0.76 0 0.000169874 0.000169874 8.8415e-06 3.7599 1116.64 1392.38 
1048 1.03 1.03 0 0.000186635 0.000186635 1.85196e-06 4.89161 1264.14 1743.56 
1088 0.81 0.81 0 0.000126244 0.000126244 -1.23992e-05 3.85315 982.37 1337.24 
1128 1 1 0 0.000138821 0.000138821 -2.83831e-05 4.77484 1116.82 1771.29 
1168 0.93 0.93 0 0.000209878 0.000209878 -3.64947e-06 4.35493 1627.16 1925.52 
1208 1.12 1.12 0 0.00023861 0.00023861 3.1166e-05 5.2769 1291.1 1982.63 
1248 1.11 1.11 0 0.000247895 0.000247895 7.53375e-06 5.22266 1594.8 2284.73 
9 0.35 0.35 0 0.000186647 0.000186647 2.33957e-05 19.6665 5961.31 8070.9 
49 8.76 8.76 0 0.00418158 0.00418158 0.00014009 41.8158 7457.78 10760.1 
89 9.66 9.66 0 0.00456753 0.00456753 -0.000123801 45.6753 7628.86 10861 
129 9.48 9.48 0 0.00441542 0.00441542 -6.43142e-06 44.1542 6659.68 9405.82 
169 9.31 9.31 0 0.00435313 0.00435313 0.000106308 43.5313 6528.26 9842.3 
209 9.33 9.33 0 0.00429911 0.00429911 -1.51422e-05 42.9911 6976.25 10629.3 
249 8.51 8.51 0 0.00400913 0.00400913 3.00917e-05 40.0913 7103.8 9862.98 
289 8.48 8.48 0 0.00414838 0.00414838 5.2908e-05 41.4838 9067.21 12566.4 
329 0.11 0.11 0 3.59914e-05 3.59914e-05 3.4581e-06 4.01562 373.172 644.96 
369 1.19 1.19 0 0.000212076 0.000212076 3.16085e-05 5.67992 1542.58 2138.05 
409 1.12 1.12 0 0.000197852 0.000197852 -3.37201e-05 5.44298 1754.52 2477.91 
449 0.99 0.99 0 0.000232495 0.000232495 -3.81591e-05 4.86209 1794.9 2286.41 
489 0.87 0.87 0 0.000161828 0.000161828 -1.26665e-05 4.34043 1101.1 1564.07 
529 0.99 0.99 0 0.000237713 0.000237713 1.306e-05 5.00379 1721.14 2223.37 
569 0.83 0.83 0 0.000154945 0.000154945 -1.97709e-06 3.3583 1224.53 1629.78 
609 0.96 0.96 0 0.000250129 0.000250129 3.01229e-05 4.88482 1817.66 2278.12 
649 0 0 0 0 0 0 0 0 0 
689 0.01 0.01 0 -3.90167e-06 -3.90167e-06 1.96524e-06 0.0390167 -12.5202 3.14101 
729 0.03 0.03 0 -1.06466e-05 -1.06466e-05 6.77557e-06 0.106466 23.5373 36.4243 
769 0.02 0.02 0 -1.14631e-05 -1.14631e-05 -1.91683e-06 0.114631 12.7251 24.522 
809 0.02 0.02 0 -1.47378e-05 -1.47378e-05 5.63768e-07 0.147378 -16.3037 0.502779 
849 0.03 0.03 0 -1.16683e-05 -1.16683e-05 2.87146e-06 0.116683 30.7456 30.0335 
889 0.02 0.02 0 -1.33833e-05 -1.33833e-05 -6.99936e-07 0.133833 -7.8262 0.240239 
929 0.04 0.04 0 -8.63357e-06 -8.63357e-06 -3.12869e-06 0.0863357 56.6383 86.9994 
969 0.03 0.03 0 7.24618e-06 7.24618e-06 2.28151e-06 1.75383 569.237 732.423 
1009 0.8 0.8 0 0.000225532 0.000225532 1.00872e-05 3.81608 1654.25 2019.84 
1049 0.89 0.89 0 0.00020528 0.00020528 2.48074e-06 4.27052 1306.08 1765.94 
1089 1.12 1.12 0 0.000173135 0.000173135 -3.01734e-05 5.20889 1266.38 1873.28 
1129 0.86 0.86 0 0.000208748 0.000208748 -5.38681e-06 3.83454 1139.98 1687.61 
1169 1.04 1.04 0 0.000244258 0.000244258 2.0832e-05 5.04318 1857.47 2491.45 
1209 1.01 1.01 0 0.000202064 0.000202064 1.3987e-05 4.99649 1367.55 2123.29 
1249 0.95 0.95 0 0.000189095 0.000189095 -1.45888e-05 4.68783 1298.6 1828.86 
10 0.44 0.44 0 0.000262578 0.000262578 1.18133e-06 24.5238 10638.8 13396.8 
50 8.98 8.98 0 0.00433335 0.00433335 -9.32671e-05 43.3335 8450.97 12104 
90 9.85 9.85 0 0.00475803 0.00475803 9.86728e-05 47.5803 7713.33 11033.6 
130 9.67 9.67 0 0.00449941 0.00449941 2.95602e-05 44.9941 6560.88 9644.37 
170 9.93 9.93 0 0.00470706 0.00470706 5.99388e-06 47.0706 7230.42 10030 
210 9.93 9.93 0 0.00466264 0.00466264 -1.67631e-05 46.6264 6850.33 10415 
250 9.06 9.06 0 0.00430459 0.00430459 -6.89713e-05 43.0459 7807.09 11205.8 
290 8.08 8.08 0 0.00395966 0.00395966 5.18998e-05 39.5966 7703.87 11698.4 
330 0.19 0.19 0 7.30721e-05 7.30721e-05 2.0442e-05 9.78304 3184.85 4897.26 
370 1.01 1.01 0 0.000251855 0.000251855 -8.62814e-06 4.6657 1784.1 2307.38 
410 1.11 1.11 0 0.000214941 0.000214941 5.91674e-06 5.39321 2124.95 2773.14 
450 0.97 0.97 0 0.000173528 0.000173528 1.21144e-05 4.54735 1124.74 1692.02 
490 0.98 0.98 0 0.000189145 0.000189145 2.36015e-05 4.30543 1323.72 1667.24 
530 1.02 1.02 0 0.000209699 0.000209699 -4.26006e-05 4.70946 1439.77 1852.06 
570 0.72 0.72 0 0.000179154 0.000179154 -3.31998e-05 3.62827 1060.23 1434.19 
610 0.85 0.85 0 0.00018085 0.00018085 -1.43743e-05 4.058 1107.12 1329.39 
650 0.01 0.01 0 -3.89191e-06 -3.89191e-06 1.38401e-06 0.444529 115.336 591.036 
690 0.04 0.04 0 -1.47291e-05 -1.47291e-05 3.67363e-06 0.147291 46.5218 62.0714 
730 0.03 0.03 0 -9.69803e-06 -9.69803e-06 -1.96034e-06 0.0969803 5.83861 19.7918 
770 0.02 0.02 0 -5.49315e-06 -5.49315e-06 -3.78262e-06 0.0549315 5.64732 25.8538 
810 0.03 0.03 0 -7.29818e-06 -7.29818e-06 1.18174e-06 0.0729818 -17.2126 -14.4716 
850 0.02 0.02 0 -1.09411e-05 -1.09411e-05 4.878e-07 0.109411 3.3737 -1.39456 
890 0.02 0.02 0 -6.86669e-06 -6.86669e-06 -4.94435e-06 0.0686669 24.8151 27.7215 
930 0.05 0.05 0 -1.91723e-05 -1.91723e-05 -1.44453e-06 0.191723 7.55536 5.24259 
970 0.15 0.15 0 4.67247e-05 4.67247e-05 -8.28941e-06 2.95364 843.563 1136.73 
1010 0.71 0.71 0 0.000178779 0.000178779 -6.50098e-07 3.30119 1262.12 1707.05 
1050 0.79 0.79 0 0.000176271 0.000176271 -2.32522e-05 3.42493 1091.94 1432.32 
1090 0.83 0.83 0 0.000189812 0.000189812 3.92978e-05 3.76544 1225.48 1538.74 
1130 0.99 0.99 0 0.000142085 0.000142085 1.18916e-05 4.77665 1187.02 1658.45 
1170 0.85 0.85 0 0.00017793 0.00017793 1.47363e-05 4.14886 1316.37 1702.69 
1210 0.93 0.93 0 0.000186302 0.000186302 -1.32436e-05 4.2207 1258.69 1717.76 
1250 1.07 1.07 0 0.0002095 0.0002095 -1.20729e-05 4.86442 1909.69 2464.55 
11 0.4 0.4 0 0.000213401 0.000213401 -1.5557e-05 21.6796 8189.09 10461 
51 8.5 8.5 0 0.00412915 0.00412915 -5.40404e-05 41.2915 7539.43 10769.4 
91 9.08 9.08 0 0.00427843 0.00427843 -2.24857e-05 42.7843 5839.78 9134.08 
131 9.36 9.36 0 0.00437189 0.00437189 1.79044e-06 43.7189 5903.45 8675.17 
171 9.7 9.7 0 0.00455215 0.00455215 -0.000106256 45.5215 7485.63 10777.2 
211 9.81 9.81 0 0.00456715 0.00456715 1.61046e-05 45.6715 6790.25 9666.04 
251 8.96 8.96 0 0.00415631 0.00415631 3.57095e-06 41.5631 7234.9 10420.7 
291 8.67 8.67 0 0.00414679 0.00414679 -8.21372e-05 41.4679 8624.36 11698.6 
331 0.14 0.14 0 5.35944e-05 5.35944e-05 -9.12015e-06 6.3716 3191.8 4405.13 
371 1.06 1.06 0 0.000239514 0.000239514 2.80037e-05 4.65375 1736.76 2552.53 
411 1.02 1.02 0 0.000188967 0.000188967 1.45389e-05 4.98079 1841.39 2364.87 
451 1.09 1.09 0 0.000233336 0.000233336 -2.68436e-07 5.05833 1680.33 2189.5 
491 0.98 0.98 0 0.000239954 0.000239954 -3.33932e-05 4.85167 1488.34 1862.52 
531 1.05 1.05 0 0.0002361 0.0002361 2.05197e-05 4.91088 1509.8 1942.23 
571 0.87 0.87 0 0.000154514 0.000154514 -1.6944e-05 4.15869 1209.99 1649.33 
611 0.89 0.89 0 0.000223151 0.000223151 -1.69126e-05 4.12526 1320.66 1766.04 
651 0 0 0 0 0 0 0 0 0 
691 0.04 0.04 0 -2.11069e-05 -2.11069e-05 -1.03631e-05 0.211069 37.5459 78.824 
731 0.05 0.05 0 -2.27307e-05 -2.27307e-05 7.44606e-06 0.227307 34.0958 85.8085 
771 0.01 0.01 0 -3.74395e-06 -3.74395e-06 3.34926e-06 0.0374395 -11.5264 -10.2648 
811 0.03 0.03 0 -1.25405e-05 -1.25405e-05 -8.26967e-07 0.125405 3.14232 12.5655 
851 0.07 0.07 0 -2.35364e-05 -2.35364e-05 -3.31601e-06 0.235364 47.7407 75.0491 
891 0.02 0.02 0 -5.72155e-06 -5.72155e-06 6.5742e-07 0.0572155 19.1219 70.561 
931 0.04 0.04 0 -1.53313e-05 -1.53313e-05 -1.17167e-06 0.153313 -1.29143 -6.09989 
971 0.15 0.15 0 4.45927e-05 4.45927e-05 2.07555e-06 3.24453 1231.63 1841.74 
1011 0.87 0.87 0 0.000160386 0.000160386 2.0894e-05 4.20385 815.678 1122.13 
1051 1.04 1.04 0 0.000184944 0.000184944 -2.77498e-05 5.11349 1163.88 1670.38 
1091 1 1 0 0.00022296 0.00022296 2.25499e-05 4.38518 1619.35 2159.05 
1131 1.02 1.02 0 0.000201318 0.000201318 1.06819e-05 5.12932 1633.46 2181.71 
1171 0.85 0.85 0 0.000168285 0.000168285 1.44093e-05 3.99168 1133.3 1575.32 
1211 1.11 1.11 0 0.000176724 0.000176724 1.74808e-05 5.31331 1745.55 2544.85 
1251 1.15 1.15 0 0.000215677 0.000215677 -3.48737e-05 5.35352 1928.22 2465.36 
12 0.52 0.52 0 0.000303343 0.000303343 -3.58485e-06 30.2484 9187.16 13434 
52 8.52 8.52 0 0.00414064 0.00414064 0.000120559 41.4064 7870.81 11371.2 
92 9.57 9.57 0 0.0044573 0.0044573 -0.00013799 44.573 7649.88 10772 
132 9.34 9.34 0 0.00435174 0.00435174 -2.95254e-05 43.5174 6957.73 9852.53 
172 9.52 9.52 0 0.00441284 0.00441284 -2.24019e-05 44.1284 6778.71 9632.39 
212 9.58 9.58 0 0.00443302 0.00443302 3.21771e-05 44.3302 6074.79 9731.47 
252 8.95 8.95 0 0.00430317 0.00430317 8.14738e-05 43.0317 7068.51 10265.3 
292 8.34 8.34 0 0.00410211 0.00410211 5.37328e-05 41.0211 7611.04 10935.3 
332 0.14 0.14 0 2.46104e-05 2.46104e-05 1.11807e-05 5.81771 3051.36 3829.48 
372 0.93 0.93 0 0.000202904 0.000202904 -3.42407e-06 4.48538 1448.47 2084.66 
412 0.94 0.94 0 0.000214621 0.000214621 1.18454e-05 4.63204 1648.4 2141.46 
452 1.06 1.06 0 0.000155014 0.000155014 1.2558e-05 5.01277 1208.21 1845.09 
492 0.91 0.91 0 0.000198698 0.000198698 -5.8063e-06 4.01981 1321.45 1820.12 
532 1.01 1.01 0 0.000186006 0.000186006 1.78391e-05 5.11468 1344.76 1788.21 
572 0.89 0.89 0 0.000194601 0.000194601 3.43119e-05 4.25504 1292.26 1743.54 
612 0.79 0.79 0 0.000176554 0.000176554 -8.26436e-06 3.83509 931.676 1332.4 
652 0 0 0 0 0 0 0 0 0 
692 0.01 0.01 0 -3.01431e-06 -3.01431e-06 1.36441e-06 0.0301431 -2.72655 -5.67849 
732 0.05 0.05 0 -2.56469e-05 -2.56469e-05 -7.49145e-06 0.256469 4.88656 29.9109 
772 0.02 0.02 0 -6.66097e-06 -6.66097e-06 -1.9966e-06 0.0666097 41.4463 65.5669 
812 0.02 0.02 0 -7.73021e-06 -7.73021e-06 2.71574e-06 0.0773021 8.26014 4.05395 
852 0.09 0.09 0 -3.73356e-05 -3.73356e-05 2.48282e-06 0.373356 30.2288 68.6674 
892 0.02 0.02 0 -4.33325e-06 -4.33325e-06 -8.35619e-07 0.0433325 -2.67701 39.4595 
932 0.06 0.06 0 -2.04902e-05 -2.04902e-05 -8.25787e-06 0.204902 30.7468 86.7563 
972 0.43 0.43 0 0.000129667 0.000129667 -9.98397e-07 4.12718 1834.79 2181.08 
1012 0.79 0.79 0 0.000195195 0.000195195 2.36168e-05 3.91261 1591.08 1979.54 
1052 0.91 0.91 0 0.000225062 0.000225062 -2.49426e-05 4.26008 1182.47 1611.45 
1092 0.98 0.98 0 0.0001503 0.0001503 -1.09499e-05 4.65788 1069.52 1595.44 
1132 1 1 0 0.00014305 0.00014305 2.22515e-05 4.66309 1295.49 1766.74 
1172 1.21 1.21 0 0.000252363 0.000252363 -3.62361e-05 6.2864 1978.86 2607.28 
1212 1.08 1.08 0 0.000221764 0.000221764 1.06455e-05 4.81855 1278.94 1820.8 
1252 1.15 1.15 0 0.000267366 0.000267366 -3.4166e-05 5.31574 1829.88 2801.48 
13 0.42 0.42 0 0.000250868 0.000250868 1.12434e-05 24.2743 7479.89 11250 
53 8.93 8.93 0 0.00426696 0.00426696 -0.000100958 42.6696 8745.29 12039 
93 9.12 9.12 0 0.00424717 0.00424717 8.5172e-05 42.4717 5555.82 8497.18 
133 9.27 9.27 0 0.00433741 0.00433741 4.88797e-05 43.3741 7279.42 10588.2 
173 9.57 9.57 0 0.00449848 0.00449848 7.90923e-05 44.9848 7619.18 10695.9 
213 9.62 9.62 0 0.0045219 0.0045219 -7.29784e-05 45.219 7261.73 9992.17 
253 9.37 9.37 0 0.00447614 0.00447614 -4.26493e-05 44.7614 6983.3 9712.64 
293 7.98 7.98 0 0.00403599 0.00403599 -0.000114037 40.3599 8085.79 11804.5 