ITEM: TIMESTEP
20000
ITEM: NUMBER OF SURFS
1272
ITEM: BOX BOUNDS oo rr pp
0 0.3
0 0.3
-0.5 0.5
ITEM: SURFS id f_3[1] f_3[2] f_3[3] f_3[4] f_3[5] f_3[6] f_3[7] f_3[8] f_3[9] 
1 0.127 0.127 0 3.41174e-05 3.41174e-05 3.57703e-06 5.50774 1805.29 2262.29 
41 8.383 8.383 0 0.00410458 0.00410458 -1.4633e-05 41.0458 8309.94 11581.9 
81 9.036 9.036 0 0.00428368 0.00428368 3.05476e-05 42.8368 7418.48 10492.4 
121 9.478 9.478 0 0.0044087 0.0044087 3.69734e-05 44.087 6806.21 9916.69 
161 9.456 9.456 0 0.00443303 0.00443303 2.9809e-05 44.3303 6597.78 9390.13 
201 9.493 9.493 0 0.0044682 0.0044682 2.16105e-06 44.682 7301.63 10309 
241 9.446 9.446 0 0.00451277 0.00451277 1.74364e-06 45.1277 7660.22 11078.9 
281 8.748 8.748 0 0.00423306 0.00423306 -2.44188e-05 42.3306 8352.99 11776.9 
321 0.507 0.507 0 0.000283273 0.000283273 1.00545e-05 28.0922 7888.36 11055 
361 1.117 1.117 0 0.000217422 0.000217422 4.15263e-08 5.2846 1595.37 2345.47 
401 1.098 1.098 0 0.000208784 0.000208784 9.22995e-06 5.3421 1529.43 2134.05 
441 1.013 1.013 0 0.000185748 0.000185748 8.79411e-07 4.75956 1360.98 1862.55 
481 1.013 1.013 0 0.000197219 0.000197219 -7.34161e-06 4.81222 1461.56 1952.06 
521 0.893 0.893 0 0.000186829 0.000186829 2.74466e-06 4.27619 1314.73 1726.62 
561 0.917 0.917 0 0.00019744 0.00019744 1.58916e-06 4.43581 1454.98 1892.82 
601 0.851 0.851 0 0.000191717 0.000191717 1.45011e-05 4.01614 1347.73 1769.34 
641 0.028 0.028 0 2.23772e-06 2.23772e-06 6.81921e-07 1.20263 437.852 473.054 
681 0.023 0.023 0 -9.40176e-06 -9.40176e-06 6.31007e-08 0.0940176 21.3727 41.4517 
721 0.031 0.031 0 -1.14792e-05 -1.14792e-05 1.30842e-06 0.114792 2.72178 20.5506 
761 0.024 0.024 0 -8.90034e-06 -8.90034e-06 2.47084e-06 0.0890034 21.4802 44.6374 
801 0.035 0.035 0 -1.38602e-05 -1.38602e-05 4.86758e-07 0.138602 20.3421 35.9368 
841 0.039 0.039 0 -1.50877e-05 -1.50877e-05 -7.28563e-07 0.150877 10.4136 26.6006 
881 0.035 0.035 0 -1.31511e-05 -1.31511e-05 1.5914e-08 0.131511 14.686 37.8783 
921 0.035 0.035 0 -1.27606e-05 -1.27606e-05 8.31649e-08 0.127606 20.2633 39.2175 
961 0.011 0.011 0 -1.87893e-06 -1.87893e-06 8.03535e-07 0.426698 154.162 228.186 
1001 0.808 0.808 0 0.000186515 0.000186515 -1.26936e-05 3.84699 1180.97 1597.84 
1041 0.896 0.896 0 0.000189674 0.000189674 2.93438e-06 4.37203 1398.98 1862.67 
1081 0.948 0.948 0 0.000187828 0.000187828 2.45975e-06 4.54373 1352.91 1813.78 
1121 1.056 1.056 0 0.000203186 0.000203186 -1.46802e-06 5.07923 1459.51 1954.76 
1161 1.018 1.018 0 0.000205795 0.000205795 7.53349e-07 4.74407 1520.46 2053.55 
1201 1.064 1.064 0 0.000209367 0.000209367 -1.40003e-05 5.07211 1565.77 2150.95 
1241 1.046 1.046 0 0.00023176 0.00023176 6.27401e-06 4.80415 1482.09 2041.39 
2 0.159 0.159 0 4.8677e-05 4.8677e-05 3.52818e-06 7.18655 2164.16 3084.94 
42 8.587 8.587 0 0.00421847 0.00421847 3.30006e-05 42.1847 8504.64 12007.4 
82 9.144 9.144 0 0.00433527 0.00433527 -4.17495e-05 43.3527 7341.64 10531.7 
122 9.428 9.428 0 0.00441254 0.00441254 -1.67085e-05 44.1254 6795.94 9824.93 
162 9.409 9.409 0 0.0043845 0.0043845 4.56983e-06 43.845 6585.01 9690.49 
202 9.258 9.258 0 0.00434152 0.00434152 2.16841e-05 43.4152 7016.25 10104.3 
242 9.028 9.028 0 0.00428089 0.00428089 2.9463e-07 42.8089 7019.26 10033.2 
282 8.641 8.641 0 0.0041462 0.0041462 1.01341e-05 41.462 7896.71 11435.7 
322 0.455 0.455 0 0.000253662 0.000253662 -4.92882e-06 25.3077 7845.56 11339.9 
362 1.022 1.022 0 0.000201693 0.000201693 -8.89861e-07 4.76552 1420.6 2066.1 
402 1.058 1.058 0 0.000204848 0.000204848 -1.14657e-05 5.12704 1507.99 2086.09 
442 1.052 1.052 0 0.000201602 0.000201602 -8.27333e-06 5.02907 1488.76 2025.34 
482 1.063 1.063 0 0.000217007 0.000217007 3.20678e-06 5.03579 1571.21 2103.54 
522 0.976 0.976 0 0.000218039 0.000218039 1.1115e-06 4.68383 1467.75 1971.39 
562 0.908 0.908 0 0.000198169 0.000198169 -5.2848e-06 4.36654 1338.23 1756.01 
602 0.825 0.825 0 0.000181098 0.000181098 3.76581e-06 3.94296 1273.19 1630.3 
642 0.015 0.015 0 -4.08301e-07 -4.08301e-07 -2.99244e-07 0.557464 187.579 283.987 
682 0.029 0.029 0 -1.04557e-05 -1.04557e-05 -1.05258e-06 0.104557 15.154 37.8446 
722 0.041 0.041 0 -1.52317e-05 -1.52317e-05 -2.55486e-06 0.152317 32.5654 59.8466 
762 0.028 0.028 0 -1.01798e-05 -1.01798e-05 -1.77205e-06 0.101798 13.3091 21.8045 
802 0.03 0.03 0 -1.19329e-05 -1.19329e-05 -2.10994e-06 0.119329 7.82763 23.3724 
842 0.022 0.022 0 -8.44939e-06 -8.44939e-06 -5.99512e-07 0.0844939 9.19687 16.2331 
882 0.031 0.031 0 -1.24975e-05 -1.24975e-05 -2.61236e-06 0.124975 13.2024 19.4828 
922 0.019 0.019 0 -7.10216e-06 -7.10216e-06 1.18686e-06 0.0710216 4.14705 15.6399 
962 0.016 0.016 0 -3.51757e-08 -3.51757e-08 1.49108e-06 0.463175 117.226 176.251 
1002 0.787 0.787 0 0.000186289 0.000186289 9.40094e-06 3.72757 1229.54 1576.03 
1042 0.872 0.872 0 0.000177019 0.000177019 4.71397e-06 4.23218 1187.67 1569.43 
1082 0.898 0.898 0 0.000188487 0.000188487 -9.70524e-07 4.21277 1355.75 1764.23 
1122 0.964 0.964 0 0.000191097 0.000191097 -2.475e-06 4.58956 1429.25 1908.14 
1162 0.985 0.985 0 0.000217242 0.000217242 -1.31634e-06 4.65911 1533.32 1977.26 
1202 1.05 1.05 0 0.000206952 0.000206952 1.6857e-06 4.75908 1533.33 2121.26 
1242 1.058 1.058 0 0.000223874 0.000223874 -1.81326e-05 4.89411 1528.3 2151.14 
3 0.158 0.158 0 5.4107e-05 5.4107e-05 -4.08524e-06 7.68631 2540.6 3634.56 
43 8.535 8.535 0 0.00417853 0.00417853 9.61776e-06 41.7853 8213.12 11597.2 
83 9.075 9.075 0 0.00431498 0.00431498 1.54122e-05 43.1498 7543.36 10588.6 
123 9.671 9.671 0 0.00454188 0.00454188 -1.56521e-06 45.4188 7388.73 10606.9 
163 9.768 9.768 0 0.0045788 0.0045788 -6.82753e-05 45.788 7359.94 10648.8 
203 9.636 9.636 0 0.00451705 0.00451705 5.87847e-06 45.1705 7255.75 10390.3 
243 9.396 9.396 0 0.0044588 0.0044588 1.05961e-05 44.588 7321.08 10555 
283 8.494 8.494 0 0.00413823 0.00413823 2.694e-06 41.3823 7920.58 11142.9 
323 0.398 0.398 0 0.000212763 0.000212763 5.94833e-06 21.2458 7309.89 9874.84 
363 1.063 1.063 0 0.000232652 0.000232652 1.21766e-06 4.86597 1676.76 2314.79 
403 1.074 1.074 0 0.00021349 0.00021349 -1.52239e-05 5.07258 1588.85 2161.29 
443 1.025 1.025 0 0.000217895 0.000217895 -8.43314e-06 4.98078 1618.56 2196.77 
483 0.994 0.994 0 0.000199741 0.000199741 -3.08699e-06 4.74966 1398.3 1920.22 
523 1.004 1.004 0 0.000195486 0.000195486 3.27932e-06 4.86466 1403.43 1866.63 
563 0.922 0.922 0 0.000180936 0.000180936 1.21083e-06 4.31127 1272.6 1748.99 
603 0.853 0.853 0 0.000197591 0.000197591 -1.12949e-05 4.2054 1317.67 1750.02 
643 0.009 0.009 0 -2.64921e-07 -2.64921e-07 1.25573e-06 0.343055 223.923 312.198 
683 0.025 0.025 0 -9.45629e-06 -9.45629e-06 2.01271e-07 0.0945629 10.8854 30.3882 
723 0.035 0.035 0 -1.24879e-05 -1.24879e-05 2.26793e-06 0.124879 24.7848 34.4031 
763 0.033 0.033 0 -1.32495e-05 -1.32495e-05 -1.65208e-07 0.132495 14.2325 33.1259 
803 0.037 0.037 0 -1.51419e-05 -1.51419e-05 -4.78139e-07 0.151419 10.024 18.1808 
843 0.023 0.023 0 -8.29835e-06 -8.29835e-06 6.55788e-07 0.0829835 9.94661 14.2624 
883 0.03 0.03 0 -1.04794e-05 -1.04794e-05 1.54145e-06 0.104794 18.6355 33.5082 
923 0.022 0.022 0 -8.71407e-06 -8.71407e-06 3.48859e-08 0.0871407 5.23466 26.9855 
963 0.016 0.016 0 6.61249e-07 6.61249e-07 -1.98112e-07 0.651047 277.401 290.941 
1003 0.867 0.867 0 0.000193242 0.000193242 5.55326e-06 4.07437 1288.93 1700.87 
1043 0.879 0.879 0 0.000177307 0.000177307 2.68269e-06 4.09705 1261.26 1696.76 
1083 0.949 0.949 0 0.00019026 0.00019026 -9.42944e-07 4.39586 1453.77 1890.13 
1123 0.988 0.988 0 0.000194826 0.000194826 -8.15608e-06 4.74485 1423.95 1886.73 
1163 1.066 1.066 0 0.000225929 0.000225929 3.49928e-06 5.10002 1578.54 2172.87 
1203 1.099 1.099 0 0.000213995 0.000213995 2.19189e-06 5.22084 1476.54 2113.87 
1243 1.055 1.055 0 0.000209259 0.000209259 2.93751e-06 4.82749 1614.48 2189.29 
4 0.207 0.207 0 7.71379e-05 7.71379e-05 6.4181e-07 10.1153 2841.94 4480.39 
44 8.481 8.481 0 0.00418068 0.00418068 -1.29117e-05 41.8068 7929.5 11119.9 
84 9.188 9.188 0 0.00433455 0.00433455 -1.73258e-05 43.3455 7255.13 10376.2 
124 9.343 9.343 0 0.00438935 0.00438935 3.16792e-05 43.8935 7001.08 10078.2 
164 9.614 9.614 0 0.00443901 0.00443901 2.2676e-05 44.3901 6917.53 9934.27 
204 9.427 9.427 0 0.00443216 0.00443216 -2.10911e-05 44.3216 6996.41 10132.1 
244 9.145 9.145 0 0.00434708 0.00434708 3.61804e-05 43.4708 7480.16 10659.6 
284 8.505 8.505 0 0.00417124 0.00417124 -5.78111e-05 41.7124 8260.82 11787 
324 0.342 0.342 0 0.00018896 0.00018896 7.7503e-06 19.1333 5748.95 7743.29 
364 1.073 1.073 0 0.000220104 0.000220104 2.1161e-05 5.10786 1543.9 2229.99 
404 1.05 1.05 0 0.000197475 0.000197475 6.07374e-07 4.97102 1510.92 2011.43 
444 1.085 1.085 0 0.000218244 0.000218244 -3.64106e-06 5.20395 1634.64 2217.06 
484 1.002 1.002 0 0.000210913 0.000210913 -1.41445e-05 4.74722 1458.94 1909.03 
524 0.93 0.93 0 0.000184005 0.000184005 9.80092e-07 4.43258 1344.56 1798.37 
564 0.93 0.93 0 0.000192195 0.000192195 7.11164e-06 4.50278 1402.73 1885.86 
604 0.831 0.831 0 0.000189179 0.000189179 6.18064e-06 3.94307 1264.89 1705.17 
644 0.011 0.011 0 -1.98565e-06 -1.98565e-06 -1.65037e-06 0.424467 3.24219 37.7705 
684 0.024 0.024 0 -9.7496e-06 -9.7496e-06 -1.44995e-06 0.097496 15.2021 35.5985 
724 0.035 0.035 0 -1.33562e-05 -1.33562e-05 1.41371e-06 0.133562 23.0736 40.4851 
764 0.033 0.033 0 -1.19388e-05 -1.19388e-05 1.48584e-06 0.119388 13.8977 34.634 
804 0.044 0.044 0 -1.82406e-05 -1.82406e-05 -2.44576e-06 0.182406 22.1648 34.0922 
844 0.043 0.043 0 -1.92369e-05 -1.92369e-05 1.78067e-06 0.192369 22.4941 50.5856 
884 0.033 0.033 0 -1.29693e-05 -1.29693e-05 -8.10931e-07 0.129693 18.463 28.2408 
924 0.035 0.035 0 -1.18797e-05 -1.18797e-05 1.53469e-06 0.118797 13.1951 24.9505 
964 0.027 0.027 0 -1.16638e-08 -1.16638e-08 3.47203e-07 1.13443 291.638 408.962 
1004 0.775 0.775 0 0.000175652 0.000175652 1.46601e-05 3.63531 1191.17 1482.91 
1044 0.906 0.906 0 0.000184929 0.000184929 3.1907e-06 4.33869 1268.66 1715.92 
1084 0.945 0.945 0 0.000180311 0.000180311 2.03575e-06 4.52158 1284.92 1719.37 
1124 1.017 1.017 0 0.00020184 0.00020184 -2.09624e-06 4.9239 1439.36 1922.25 
1164 1.009 1.009 0 0.000197357 0.000197357 -3.58035e-07 4.79531 1409.27 1920.56 
1204 1.077 1.077 0 0.00021518 0.00021518 -2.94368e-06 4.96588 1426.65 2014.37 
1244 1.059 1.059 0 0.000218366 0.000218366 -1.66826e-06 4.95921 1567.27 2255.43 
5 0.219 0.219 0 9.59775e-05 9.59775e-05 3.70411e-06 10.7878 3770.12 5739.54 
45 8.667 8.667 0 0.00422059 0.00422059 2.38604e-05 42.2059 8442.69 11923.6 
85 9.179 9.179 0 0.00432684 0.00432684 -5.58775e-06 43.2684 7080.5 10327.7 
125 9.494 9.494 0 0.00443467 0.00443467 -2.28676e-05 44.3467 7080.2 10215.6 
165 9.628 9.628 0 0.00449773 0.00449773 -1.17122e-06 44.9773 6905.68 10171.2 
205 9.31 9.31 0 0.0043379 0.0043379 4.04248e-05 43.379 6699.41 9873.71 
245 9.212 9.212 0 0.00437002 0.00437002 4.84677e-05 43.7002 7221.91 10378.1 
285 8.568 8.568 0 0.00417731 0.00417731 1.46405e-05 41.7731 7997.08 11312.9 
325 0.329 0.329 0 0.000167448 0.000167448 -8.28636e-06 17.1236 5684.64 7586.58 
365 1.063 1.063 0 0.000225444 0.000225444 -2.56934e-05 4.92767 1600.77 2323.82 
405 1.092 1.092 0 0.000212082 0.000212082 6.52548e-06 5.00251 1460.92 2131.81 
445 1.046 1.046 0 0.000218181 0.000218181 3.13201e-06 5.06271 1638.72 2164.73 
485 0.988 0.988 0 0.000182619 0.000182619 -5.01587e-07 4.67188 1410.66 1925.58 
525 0.926 0.926 0 0.000188042 0.000188042 -4.82521e-06 4.30391 1336.54 1721.77 
565 0.96 0.96 0 0.000202375 0.000202375 -1.4085e-06 4.57948 1474.99 1858.66 
605 0.759 0.759 0 0.000180322 0.000180322 -1.11803e-05 3.60025 1177.11 1545.69 
645 0.012 0.012 0 -2.47589e-06 -2.47589e-06 2.49342e-07 0.494681 37.1612 56.8628 
685 0.021 0.021 0 -8.88663e-06 -8.88663e-06 -2.29811e-06 0.0888663 5.46887 21.2143 
725 0.022 0.022 0 -9.5361e-06 -9.5361e-06 2.29376e-06 0.095361 5.3622 21.1213 
765 0.023 0.023 0 -7.71342e-06 -7.71342e-06 -5.96612e-07 0.0771342 19.7455 26.611 
805 0.027 0.027 0 -9.61958e-06 -9.61958e-06 -1.48055e-07 0.0961958 12.1691 21.6913 
845 0.038 0.038 0 -1.68582e-05 -1.68582e-05 2.23337e-07 0.168582 13.3576 29.4271 
885 0.03 0.03 0 -1.25603e-05 -1.25603e-05 -7.33027e-07 0.125603 9.96459 17.5037 
925 0.031 0.031 0 -1.09369e-05 -1.09369e-05 2.97323e-06 0.109369 18.0957 43.9088 
965 0.029 0.029 0 3.54741e-06 3.54741e-06 1.20017e-06 1.33535 617.706 587.485 
1005 0.839 0.839 0 0.000189469 0.000189469 2.69901e-07 4.03353 1291.35 1655.57 
1045 0.937 0.937 0 0.000191191 0.000191191 1.13843e-05 4.42092 1404.56 1862.01 
1085 0.952 0.952 0 0.000177505 0.000177505 -9.8544e-06 4.55616 1314.6 1735.38 
1125 0.98 0.98 0 0.000187079 0.000187079 -9.1462e-07 4.70005 1431.8 1888.09 
1165 1.073 1.073 0 0.000226207 0.000226207 7.57979e-06 5.07565 1660.76 2179.77 
1205 1.024 1.024 0 0.000206344 0.000206344 -1.35003e-06 4.76569 1433.74 2057.67 
1245 1.056 1.056 0 0.000217258 0.000217258 -2.02394e-06 4.84013 1578.78 2270.59 
6 0.246 0.246 0 0.000112561 0.000112561 -2.70792e-07 12.3055 3728.01 5681.11 
46 8.461 8.461 0 0.00412386 0.00412386 -3.65557e-05 41.2386 8086.74 11431.2 
86 9.149 9.149 0 0.00435381 0.00435381 2.81755e-06 43.5381 7312.66 10460.9 
126 9.551 9.551 0 0.00447877 0.00447877 -4.97142e-06 44.7877 7250.79 10343.2 
166 9.656 9.656 0 0.00450497 0.00450497 5.41441e-05 45.0497 7041.43 10242.7 
206 9.321 9.321 0 0.00436378 0.00436378 -2.0676e-05 43.6378 7074.33 10067.9 
246 9.433 9.433 0 0.00449673 0.00449673 1.4866e-06 44.9673 7864.63 11254 
286 8.682 8.682 0 0.00423114 0.00423114 4.7959e-05 42.3114 8189.77 11693.5 
326 0.32 0.32 0 0.000163657 0.000163657 -3.51998e-06 16.9322 6683.2 8766.66 
366 1.04 1.04 0 0.000220022 0.000220022 4.45714e-07 4.8642 1601.17 2230.83 
406 1.108 1.108 0 0.000220452 0.000220452 -8.48161e-06 5.25129 1569.87 2151.34 
446 1.049 1.049 0 0.000215258 0.000215258 5.42166e-06 5.10458 1591.37 2167.22 
486 0.975 0.975 0 0.000190876 0.000190876 -4.73535e-06 4.74803 1362.78 1916.8 
526 0.929 0.929 0 0.000193585 0.000193585 4.99531e-06 4.40201 1352.29 1793 
566 0.881 0.881 0 0.000205761 0.000205761 -1.33255e-06 4.21837 1346.05 1764.05 
606 0.828 0.828 0 0.000183115 0.000183115 -3.61382e-06 3.90411 1170.8 1521.2 
646 0.002 0.002 0 -7.96726e-07 -7.96726e-07 -1.0494e-07 0.0712195 16.3693 15.3929 
686 0.024 0.024 0 -1.01868e-05 -1.01868e-05 -1.2849e-06 0.101868 31.6622 37.81 
726 0.028 0.028 0 -9.48226e-06 -9.48226e-06 -3.46174e-07 0.0948226 17.5168 24.3357 
766 0.031 0.031 0 -1.2143e-05 -1.2143e-05 2.58877e-06 0.12143 25.5745 36.2311 
806 0.03 0.03 0 -1.31661e-05 -1.31661e-05 3.53843e-06 0.131661 24.631 60.0742 
846 0.034 0.034 0 -1.47694e-05 -1.47694e-05 -5.31856e-07 0.147694 23.9677 41.5063 
886 0.035 0.035 0 -1.3273e-05 -1.3273e-05 -6.54076e-07 0.13273 16.3381 33.023 
926 0.022 0.022 0 -8.22222e-06 -8.22222e-06 -1.29934e-06 0.0822222 19.3418 32.269 
966 0.051 0.051 0 8.57478e-06 8.57478e-06 -1.30018e-06 2.12762 930.205 1121.45 
1006 0.825 0.825 0 0.000183984 0.000183984 -1.25638e-05 3.98208 1313.1 1682.54 
1046 0.875 0.875 0 0.00018673 0.00018673 -8.54699e-06 4.17478 1337.26 1813.49 
1086 0.979 0.979 0 0.000182308 0.000182308 -1.06922e-06 4.61872 1346.71 1778.19 
1126 1.034 1.034 0 0.000191429 0.000191429 1.03185e-05 4.93135 1448.72 1923.57 
1166 1.018 1.018 0 0.000186698 0.000186698 1.44178e-05 4.91407 1514.18 2110.12 
1206 1.103 1.103 0 0.000222198 0.000222198 5.45588e-07 5.22314 1698.13 2376.04 
1246 1.082 1.082 0 0.000215844 0.000215844 3.24819e-06 4.98252 1588.49 2269.04 
7 0.237 0.237 0 0.000108203 0.000108203 3.93613e-06 11.2731 4034.94 5500.5 
47 8.357 8.357 0 0.00407205 0.00407205 -6.14138e-06 40.7205 7787.49 11184.7 
87 9.248 9.248 0 0.00438281 0.00438281 2.72102e-05 43.8281 7389.57 10719.1 
127 9.6 9.6 0 0.00445925 0.00445925 -2.3562e-05 44.5925 6804.42 9965.98 
167 9.509 9.509 0 0.00444993 0.00444993 1.66245e-05 44.4993 6921.84 9901.37 
207 9.694 9.694 0 0.00454252 0.00454252 9.17593e-06 45.4252 7134.3 10175.4 
247 9.306 9.306 0 0.0043911 0.0043911 -1.55054e-05 43.911 7491.02 10695.6 
287 8.508 8.508 0 0.00413868 0.00413868 -1.02748e-05 41.3868 8247.27 11721.8 
327 0.246 0.246 0 0.000113824 0.000113824 6.87801e-06 11.9863 4307.58 6142.01 
367 1.016 1.016 0 0.000196733 0.000196733 2.79886e-06 4.82868 1426.18 2028.72 
407 1.056 1.056 0 0.000205668 0.000205668 -7.04687e-06 5.07964 1513.15 2071.1 
447 1.092 1.092 0 0.000223875 0.000223875 1.35346e-05 5.23757 1688.18 2292.56 
487 1.007 1.007 0 0.000212203 0.000212203 6.97794e-06 4.74305 1620.98 2169.76 
527 0.975 0.975 0 0.000180484 0.000180484 -1.22719e-06 4.64983 1381.7 1874.73 
567 0.95 0.95 0 0.000204445 0.000204445 6.57317e-06 4.50488 1374 1788.61 
607 0.826 0.826 0 0.000178164 0.000178164 2.18613e-06 3.98628 1135.28 1507.91 
647 0.009 0.009 0 -2.44788e-06 -2.44788e-06 2.02298e-06 0.30088 9.80957 38.9748 
687 0.017 0.017 0 -5.24268e-06 -5.24268e-06 4.46427e-08 0.0524268 7.76437 16.2316 
727 0.036 0.036 0 -1.36902e-05 -1.36902e-05 -9.1908e-07 0.136902 16.9525 40.4779 
767 0.039 0.039 0 -1.64171e-05 -1.64171e-05 -1.02193e-06 0.164171 31.7984 51.8566 
807 0.034 0.034 0 -1.15797e-05 -1.15797e-05 -3.6922e-07 0.115797 6.0801 17.0656 
847 0.043 0.043 0 -1.57895e-05 -1.57895e-05 1.651e-06 0.157895 19.9438 50.7565 
887 0.025 0.025 0 -9.83557e-06 -9.83557e-06 -8.0998e-07 0.0983557 20.8101 31.6271 
927 0.027 0.027 0 -1.07025e-05 -1.07025e-05 -1.27718e-06 0.107025 11.3611 32.3903 
967 0.052 0.052 0 8.8277e-06 8.8277e-06 2.0631e-06 2.2939 906.869 1219.51 
1007 0.858 0.858 0 0.000190161 0.000190161 -6.39209e-06 4.16764 1320.06 1788.75 
1047 0.854 0.854 0 0.000184024 0.000184024 7.00094e-06 4.07919 1272.59 1708.07 
1087 0.963 0.963 0 0.000206951 0.000206951 -1.02949e-05 4.62222 1403.1 1770.44 
1127 1.019 1.019 0 0.000200821 0.000200821 -5.98061e-06 4.87659 1472.11 1944.64 
1167 1.038 1.038 0 0.000210794 0.000210794 -4.2379e-06 4.92351 1608.95 2150.73 
1207 1.022 1.022 0 0.000185316 0.000185316 -9.48548e-06 4.74887 1395.94 1997.16 
1247 1.058 1.058 0 0.000212392 0.000212392 -2.49586e-05 4.85043 1528.85 2235.2 
8 0.353 0.353 0 0.000186749 0.000186749 2.59126e-06 19.4488 6493.6 9058.12 
48 8.678 8.678 0 0.00424259 0.00424259 -1.65351e-05 42.4259 8206.03 11716.5 
88 9.092 9.092 0 0.00424261 0.00424261 -6.53766e-08 42.4261 7053.51 10189.8 
128 9.484 9.484 0 0.00442496 0.00442496 -1.09261e-05 44.2496 6834.71 9894.78 
168 9.554 9.554 0 0.00444309 0.00444309 -9.62442e-06 44.4309 6845.5 9938.09 
208 9.495 9.495 0 0.00444625 0.00444625 2.63019e-06 44.4625 6865.91 10112.8 
248 9.41 9.41 0 0.00444275 0.00444275 -4.26325e-06 44.4275 7268.93 10541 
288 8.502 8.502 0 0.00414451 0.00414451 1.70661e-05 41.4451 7944.25 11287.1 
328 0.201 0.201 0 8.61161e-05 8.61161e-05 -7.21381e-06 10.1085 3382.69 4761.26 
368 1.047 1.047 0 0.000205393 0.000205393 1.054e-06 4.91968 1529.98 2138.67 
408 1.03 1.03 0 0.00021299 0.00021299 -9.29848e-07 4.87516 1564.07 2122.86 
448 0.978 0.978 0 0.000195853 0.000195853 -1.26689e-05 4.68428 1456.25 1897.48 
488 0.986 0.986 0 0.000205641 0.000205641 -3.3033e-06 4.69165 1461.41 1964.74 
528 0.886 0.886 0 0.000180507 0.000180507 -9.01904e-06 4.15564 1316.17 1726.91 
568 0.857 0.857 0 0.000180776 0.000180776 5.40865e-06 4.09512 1292.67 1743.55 
608 0.833 0.833 0 0.000182669 0.000182669 -8.47975e-06 3.92514 1267.49 1679.89 
648 0.008 0.008 0 -2.34465e-06 -2.34465e-06 -4.70686e-07 0.245319 65.5815 73.8887 
688 0.028 0.028 0 -8.91156e-06 -8.91156e-06 -1.32914e-06 0.0891156 14.2371 24.0568 
728 0.033 0.033 0 -1.23389e-05 -1.23389e-05 -1.41208e-06 0.123389 16.6879 32.1669 
768 0.043 0.043 0 -1.5774e-05 -1.5774e-05 -2.87882e-06 0.15774 39.2292 51.7039 
808 0.034 0.034 0 -1.29521e-05 -1.29521e-05 -4.21229e-07 0.129521 15.4351 35.8903 
848 0.028 0.028 0 -1.05442e-05 -1.05442e-05 -4.7465e-07 0.105442 23.2411 36.8917 
888 0.032 0.032 0 -1.13056e-05 -1.13056e-05 1.41945e-06 0.113056 9.50721 25.2804 
928 0.034 0.034 0 -1.16608e-05 -1.16608e-05 -2.42168e-06 0.116608 11.9499 19.643 
968 0.05 0.05 0 9.9844e-06 9.9844e-06 1.31648e-06 2.3936 901.546 1182.22 
1008 0.823 0.823 0 0.000163795 0.000163795 5.34524e-07 4.03423 1208.71 1562.7 
1048 0.909 0.909 0 0.000178739 0.000178739 -6.07972e-06 4.26245 1258.38 1725.72 
1088 0.902 0.902 0 0.000162852 0.000162852 -1.63392e-05 4.21873 1258.8 1734.6 
1128 1.02 1.02 0 0.000195525 0.000195525 8.06043e-06 4.88556 1382.2 1885.41 
1168 1.042 1.042 0 0.000213147 0.000213147 4.27352e-06 4.86624 1579.03 2091.19 
1208 1.056 1.056 0 0.000223527 0.000223527 3.55493e-06 4.81901 1574.07 2109.39 
1248 1.051 1.051 0 0.00019069 0.00019069 1.82739e-05 4.92902 1416.54 2088.47 
9 0.305 0.305 0 0.000161154 0.000161154 2.0203e-06 16.5248 5672.98 7625.28 
49 8.615 8.615 0 0.004181 0.004181 3.77064e-05 41.81 7994.1 11344.9 
89 9.292 9.292 0 0.00442462 0.00442462 -4.68961e-06 44.2462 7499.48 10734.3 
129 9.182 9.182 0 0.00430736 0.00430736 -5.36344e-05 43.0736 6962.02 9885.3 
169 9.299 9.299 0 0.0043488 0.0043488 9.96801e-06 43.488 6823.95 9833.88 
209 9.551 9.551 0 0.00443314 0.00443314 -1.12225e-05 44.3314 7178.02 10341.8 
249 9.295 9.295 0 0.00442265 0.00442265 -5.87137e-07 44.2265 7611.21 10819.3 
289 8.492 8.492 0 0.00414272 0.00414272 -1.62723e-05 41.4272 8040.72 11524.7 
329 0.17 0.17 0 6.07649e-05 6.07649e-05 3.27091e-06 8.20803 2325.71 3638.08 
369 1.135 1.135 0 0.000228235 0.000228235 1.9562e-05 5.332 1710.18 2411.62 
409 1.078 1.078 0 0.000191199 0.000191199 -6.33114e-06 5.23102 1478.04 2005.35 
449 0.997 0.997 0 0.000208212 0.000208212 -5.61623e-06 4.6863 1490.59 2040.17 
489 0.988 0.988 0 0.000192076 0.000192076 5.48919e-06 4.76904 1438.65 1950.32 
529 0.931 0.931 0 0.000187561 0.000187561 4.28161e-06 4.50221 1235.94 1581.38 
569 0.901 0.901 0 0.000188789 0.000188789 -3.79289e-06 4.21137 1379.66 1826.13 
609 0.788 0.788 0 0.000185268 0.000185268 1.48142e-06 3.73872 1248.88 1568.14 
649 0.006 0.006 0 -1.65199e-06 -1.65199e-06 1.00547e-06 0.184437 21.9421 56.9142 
689 0.033 0.033 0 -1.21178e-05 -1.21178e-05 7.19658e-07 0.121178 11.2919 31.3488 
729 0.037 0.037 0 -1.331e-05 -1.331e-05 1.07291e-06 0.1331 7.01272 10.0307 
769 0.031 0.031 0 -1.37029e-05 -1.37029e-05 1.42583e-07 0.137029 13.1011 27.3455 
809 0.037 0.037 0 -1.582e-05 -1.582e-05 2.11067e-06 0.1582 19.4605 36.4745 
849 0.034 0.034 0 -1.35767e-05 -1.35767e-05 1.16975e-07 0.135767 16.2351 32.3236 
889 0.032 0.032 0 -1.08791e-05 -1.08791e-05 -9.87555e-07 0.108791 12.2324 17.0448 
929 0.028 0.028 0 -9.74872e-06 -9.74872e-06 6.29138e-07 0.0974872 19.3935 32.1358 
969 0.06 0.06 0 1.45592e-05 1.45592e-05 -8.17857e-07 3.02652 1078.73 1363.1 
1009 0.813 0.813 0 0.000185134 0.000185134 -1.07e-05 3.85665 1149.85 1524.66 
1049 0.899 0.899 0 0.000189153 0.000189153 -7.21138e-06 4.32246 1385.18 1837.65 
1089 0.946 0.946 0 0.000191532 0.000191532 6.65621e-06 4.46995 1303.6 1780.19 
1129 0.985 0.985 0 0.000191618 0.000191618 1.49867e-05 4.61974 1242.46 1778 
1169 1.046 1.046 0 0.000202862 0.000202862 1.92291e-05 4.93214 1572.74 2064.49 
1209 1.088 1.088 0 0.000222728 0.000222728 7.31979e-06 5.17081 1598.54 2239.48 
1249 1.08 1.08 0 0.00022085 0.00022085 1.04938e-05 4.94301 1597.74 2304.86 
10 0.404 0.404 0 0.000220211 0.000220211 -7.17047e-06 21.4745 7264.15 9356.9 
50 8.797 8.797 0 0.00425693 0.00425693 1.5536e-05 42.5693 7920.58 11349.8 
90 9.316 9.316 0 0.00440192 0.00440192 2.81214e-05 44.0192 7453.83 10468.1 
130 9.653 9.653 0 0.00451479 0.00451479 -5.59144e-06 45.1479 7028.9 10180 
170 9.524 9.524 0 0.00445719 0.00445719 -2.21108e-05 44.5719 6704.59 9749.23 
210 9.409 9.409 0 0.00442393 0.00442393 -1.34365e-06 44.2393 7089.73 10192.7 
250 9.115 9.115 0 0.00433527 0.00433527 5.41439e-06 43.3527 7518.69 10543.9 
290 8.286 8.286 0 0.00404957 0.00404957 1.88802e-06 40.4957 7850.54 11137.1 
330 0.168 0.168 0 6.10711e-05 6.10711e-05 -1.70702e-06 7.77983 2729.56 3910.63 
370 1.117 1.117 0 0.000243578 0.000243578 2.76079e-06 5.13991 1671.93 2336.67 
410 1.125 1.125 0 0.000232101 0.000232101 1.23441e-06 5.26552 1686.83 2297.43 
450 0.995 0.995 0 0.000190734 0.000190734 5.38151e-06 4.74453 1469.57 1947.48 
490 0.973 0.973 0 0.00018801 0.00018801 5.36199e-06 4.56666 1312.96 1757.16 
530 1 1 0 0.000196002 0.000196002 -5.02446e-06 4.73552 1496.28 1956.98 
570 0.885 0.885 0 0.00020319 0.00020319 -1.64054e-06 4.26559 1376.66 1845.14 
610 0.817 0.817 0 0.000190793 0.000190793 1.09301e-06 3.93481 1242.88 1666.8 
650 0.002 0.002 0 -5.34563e-07 -5.34563e-07 3.55804e-07 0.0634268 22.1229 76.5606 
690 0.029 0.029 0 -1.04799e-05 -1.04799e-05 -6.86295e-07 0.104799 11.2749 32.9573 
730 0.034 0.034 0 -1.3573e-05 -1.3573e-05 -2.1039e-07 0.13573 16.7855 33.0775 
770 0.023 0.023 0 -8.43054e-06 -8.43054e-06 -1.37646e-06 0.0843054 9.77781 25.4989 
810 0.026 0.026 0 -9.8046e-06 -9.8046e-06 8.90754e-07 0.098046 9.71067 23.9022 
850 0.029 0.029 0 -1.27009e-05 -1.27009e-05 -5.79866e-07 0.127009 21.1636 26.6828 
890 0.035 0.035 0 -1.47911e-05 -1.47911e-05 5.47847e-07 0.147911 27.4784 35.3896 
930 0.023 0.023 0 -7.98158e-06 -7.98158e-06 -2.69022e-07 0.0798158 7.58541 12.5108 
970 0.175 0.175 0 4.16944e-05 4.16944e-05 -3.50886e-06 3.44287 987.613 1338.73 
1010 0.818 0.818 0 0.000178051 0.000178051 2.46423e-06 3.85065 1204.53 1651 
1050 0.84 0.84 0 0.000170957 0.000170957 1.72522e-06 3.94287 1208.54 1573.71 
1090 0.951 0.951 0 0.000185436 0.000185436 8.42177e-06 4.52457 1343.68 1781.52 
1130 1.02 1.02 0 0.000215082 0.000215082 1.06683e-05 4.83195 1581.26 2090.09 
1170 0.998 0.998 0 0.000193213 0.000193213 6.37623e-06 4.75155 1407.01 1908.07 
1210 1.038 1.038 0 0.0001919 0.0001919 -8.86795e-06 4.88951 1419.52 1968.1 
1250 1.077 1.077 0 0.000197807 0.000197807 -1.37509e-05 4.96982 1435.23 2162.46 
11 0.459 0.459 0 0.000253825 0.000253825 1.75472e-06 25.2326 7516.74 10617.3 
51 8.576 8.576 0 0.00413195 0.00413195 1.89552e-05 41.3195 7686.53 11022.1 
91 9.307 9.307 0 0.00439428 0.00439428 -3.40312e-05 43.9428 7251.61 10557.6 
131 9.269 9.269 0 0.00435092 0.00435092 2.0275e-05 43.5092 6779.61 9609.19 
171 9.571 9.571 0 0.00448171 0.00448171 -1.56393e-05 44.8171 6887.18 9902.05 
211 9.531 9.531 0 0.00446653 0.00446653 -2.38673e-06 44.6653 6988.42 10197.6 
251 9.14 9.14 0 0.00436876 0.00436876 -3.32977e-05 43.6876 7688.22 11015.9 
291 8.456 8.456 0 0.00413141 0.00413141 -7.82635e-06 41.3141 8189.71 11871.9 
331 0.162 0.162 0 5.2858e-05 5.2858e-05 1.98022e-06 8.27206 2468.17 3555.7 
371 1.069 1.069 0 0.000221846 0.000221846 -1.20556e-05 5.0147 1651.51 2319.45 
411 1.037 1.037 0 0.000206039 0.000206039 1.38065e-06 4.85225 1611.69 2189.89 
451 1.043 1.043 0 0.000215867 0.000215867 1.05983e-05 4.8291 1511.91 2047.68 
491 1.003 1.003 0 0.000206376 0.000206376 7.56068e-06 4.77841 1320.2 1854.02 
531 0.924 0.924 0 0.000188107 0.000188107 1.40553e-06 4.43354 1325.32 1708.37 
571 0.919 0.919 0 0.000198059 0.000198059 1.00543e-06 4.35262 1387.91 1872.91 
611 0.79 0.79 0 0.000184314 0.000184314 5.89871e-06 3.7572 1217.36 1547.21 
651 0.001 0.001 0 -8.04604e-08 -8.04604e-08 -1.2713e-07 0.00832185 -2.20282 -7.28026 
691 0.028 0.028 0 -9.67261e-06 -9.67261e-06 -7.97077e-07 0.0967261 19.2835 28.5294 
731 0.032 0.032 0 -1.342e-05 -1.342e-05 7.12508e-07 0.1342 19.9669 33.0694 
771 0.032 0.032 0 -1.37949e-05 -1.37949e-05 9.40381e-07 0.137949 21.5069 22.2536 
811 0.027 0.027 0 -1.03985e-05 -1.03985e-05 2.06688e-06 0.103985 6.95456 12.2087 
851 0.036 0.036 0 -1.17547e-05 -1.17547e-05 -2.20892e-06 0.117547 22.6506 38.5364 
891 0.036 0.036 0 -1.45538e-05 -1.45538e-05 -3.0527e-08 0.145538 26.1346 56.6482 
931 0.022 0.022 0 -7.63743e-06 -7.63743e-06 -7.90292e-07 0.0763743 3.52042 6.32807 
971 0.167 0.167 0 3.80189e-05 3.80189e-05 3.6393e-06 3.35603 1005.19 1307.45 
1011 0.806 0.806 0 0.000178237 0.000178237 -5.0425e-06 3.79978 1190.74 1556.28 
1051 0.853 0.853 0 0.000165493 0.000165493 -1.11796e-05 4.00839 1156.46 1547.66 
1091 0.948 0.948 0 0.00020419 0.00020419 1.18986e-06 4.42348 1411.54 1876.05 
1131 0.996 0.996 0 0.000197268 0.000197268 -2.14676e-06 4.73722 1457.31 1934.44 
1171 0.973 0.973 0 0.000193217 0.000193217 -1.07712e-05 4.47249 1336.58 1805.83 
1211 1.03 1.03 0 0.000209734 0.000209734 3.37695e-06 4.91742 1659.86 2314.92 
1251 1.102 1.102 0 0.000231427 0.000231427 3.58007e-06 5.22241 1847.38 2571.63 
12 0.487 0.487 0 0.000276124 0.000276124 -1.12957e-06 27.2482 8001.2 11359 
52 8.661 8.661 0 0.00419407 0.00419407 -4.52481e-06 41.9407 7773.79 11160.7 
92 9.257 9.257 0 0.00438008 0.00438008 -2.80848e-05 43.8008 7377.87 10544.6 
132 9.388 9.388 0 0.00441334 0.00441334 1.33695e-05 44.1334 7232.34 10363.9 
172 9.707 9.707 0 0.0045585 0.0045585 -1.55891e-05 45.585 7163.55 10423.2 
212 9.651 9.651 0 0.00451869 0.00451869 2.11707e-05 45.1869 7161.02 10109.2 
252 9.043 9.043 0 0.00429214 0.00429214 2.54634e-06 42.9214 7235.57 10226 
292 8.407 8.407 0 0.00413488 0.00413488 -9.0819e-06 41.3488 8185 11610.4 
332 0.136 0.136 0 3.21499e-05 3.21499e-05 2.0767e-06 6.26058 1893.51 2951.83 
372 1.006 1.006 0 0.00020473 0.00020473 -5.90905e-07 4.64733 1490.51 2102.39 
412 1.037 1.037 0 0.000222198 0.000222198 1.13212e-06 4.85708 1589.65 2156.08 
452 1.028 1.028 0 0.000200829 0.000200829 -3.02304e-06 4.90844 1517.3 2071.23 
492 1.021 1.021 0 0.000209285 0.000209285 -8.67674e-07 4.84801 1491.99 1949.12 
532 0.937 0.937 0 0.000176083 0.000176083 7.11163e-06 4.38976 1254.51 1705.43 
572 0.901 0.901 0 0.000188416 0.000188416 7.94837e-06 4.25962 1336.08 1732.55 
612 0.752 0.752 0 0.000171249 0.000171249 -2.93198e-06 3.63204 1113.42 1505.04 
652 0.004 0.004 0 -1.5375e-06 -1.5375e-06 7.97017e-07 0.0615002 3.02306 13.921 
692 0.024 0.024 0 -9.65768e-06 -9.65768e-06 -2.59052e-06 0.0965768 13.7723 19.4082 
732 0.031 0.031 0 -1.20401e-05 -1.20401e-05 -8.69323e-08 0.120401 12.1522 19.5942 
772 0.023 0.023 0 -9.41937e-06 -9.41937e-06 7.43758e-07 0.0941937 12.0765 22.0822 
812 0.027 0.027 0 -1.13011e-05 -1.13011e-05 -1.36492e-06 0.113011 21.4671 32.8019 
852 0.042 0.042 0 -1.93315e-05 -1.93315e-05 4.1107e-07 0.193315 18.4991 38.8743 
892 0.033 0.033 0 -1.13884e-05 -1.13884e-05 -4.08596e-07 0.113884 19.8514 37.7122 
932 0.035 0.035 0 -1.3548e-05 -1.3548e-05 -5.33224e-07 0.13548 19.7627 47.5388 
972 0.345 0.345 0 9.91453e-05 9.91453e-05 -1.03795e-06 3.42179 1255.24 1540.56 