ITEM: TIMESTEP
20000
ITEM: NUMBER OF SURFS
1272
ITEM: BOX BOUNDS oo rr pp
0 0.3
0 0.3
-0.5 0.5
ITEM: SURFS id f_2[1] f_2[2] f_2[3] f_2[4] f_2[5] f_2[6] f_2[7] f_2[8] f_2[9] 
1 0.118 0.118 0 2.95131e-05 2.95131e-05 1.62806e-07 5.23636 1668.14 2146.84 
41 8.432 8.432 0 0.00413721 0.00413721 1.05471e-05 41.3721 8200.41 11607.3 
81 9.044 9.044 0 0.00430561 0.00430561 2.27623e-05 43.0561 7588.65 10730.5 
121 9.398 9.398 0 0.00438302 0.00438302 6.31893e-05 43.8302 6546.44 9796.7 
161 9.494 9.494 0 0.00444425 0.00444425 7.54436e-06 44.4425 6714.52 9713.21 
201 9.614 9.614 0 0.00451812 0.00451812 7.03976e-06 45.1812 7202.51 10274.4 
241 9.36 9.36 0 0.00446796 0.00446796 1.76892e-05 44.6796 7787.08 11256.8 
281 8.632 8.632 0 0.00415328 0.00415328 -2.13323e-05 41.5328 8287 11745.5 
321 0.54 0.54 0 0.000293097 0.000293097 6.84862e-06 28.9566 7306.41 10657.3 
361 1.124 1.124 0 0.000219212 0.000219212 1.2408e-05 5.26778 1593.86 2405.64 
401 1.096 1.096 0 0.000202507 0.000202507 1.53818e-05 5.2799 1447.26 2064.95 
441 1.068 1.068 0 0.000203338 0.000203338 -5.08599e-06 4.91629 1577.1 2082.81 
481 1.038 1.038 0 0.000207893 0.000207893 -1.4604e-05 4.87893 1534.45 2056.29 
521 0.9 0.9 0 0.000183235 0.000183235 1.26286e-05 4.33263 1235.08 1623.56 
561 0.848 0.848 0 0.000167395 0.000167395 -1.09217e-05 4.05793 1264.84 1758.95 
601 0.804 0.804 0 0.000189174 0.000189174 8.1976e-06 3.78268 1269.17 1649.95 
641 0.024 0.024 0 3.49768e-06 3.49768e-06 -4.89934e-07 0.968108 343.173 420.614 
681 0.026 0.026 0 -1.1255e-05 -1.1255e-05 1.7087e-06 0.11255 30.4455 53.6416 
721 0.03 0.03 0 -1.27349e-05 -1.27349e-05 2.82411e-06 0.127349 -11.7371 3.88555 
761 0.032 0.032 0 -1.2372e-05 -1.2372e-05 1.7119e-06 0.12372 22.6988 63.4394 
801 0.042 0.042 0 -1.64732e-05 -1.64732e-05 8.83569e-07 0.164732 10.2523 31.6751 
841 0.042 0.042 0 -1.47889e-05 -1.47889e-05 -1.80879e-06 0.147889 14.2749 31.181 
881 0.04 0.04 0 -1.51491e-05 -1.51491e-05 -3.99403e-07 0.151491 16.7922 43.9308 
921 0.038 0.038 0 -1.28163e-05 -1.28163e-05 7.38958e-07 0.128163 19.4782 39.1534 
961 0.008 0.008 0 -1.53381e-06 -1.53381e-06 1.04055e-06 0.23561 128.879 183.287 
1001 0.798 0.798 0 0.000186558 0.000186558 -5.93167e-06 3.75813 1144.79 1566.7 
1041 0.874 0.874 0 0.00017425 0.00017425 -9.71535e-06 4.25919 1269.08 1698.15 
1081 0.93 0.93 0 0.000177697 0.000177697 -5.39011e-06 4.53502 1318.77 1731.63 
1121 1.124 1.124 0 0.000217059 0.000217059 6.93976e-06 5.3698 1488.77 2032.61 
1161 1.042 1.042 0 0.000221315 0.000221315 2.89851e-06 4.88673 1522.99 2064.72 
1201 1.064 1.064 0 0.000197911 0.000197911 -2.6545e-06 5.06601 1516.1 2127.79 
1241 1.024 1.024 0 0.000229943 0.000229943 3.11605e-06 4.81244 1440.05 1938.72 
2 0.18 0.18 0 5.62029e-05 5.62029e-05 7.55143e-06 8.36355 2349.32 3495.92 
42 8.548 8.548 0 0.00422297 0.00422297 3.45935e-05 42.2297 8572.69 12198.5 
82 9.166 9.166 0 0.00436514 0.00436514 -3.60981e-05 43.6514 7410.02 10450.2 
122 9.174 9.174 0 0.00431742 0.00431742 -1.70946e-05 43.1742 7003.16 10042 
162 9.198 9.198 0 0.00430861 0.00430861 3.82321e-05 43.0861 6512.92 9546.49 
202 9.172 9.172 0 0.00432245 0.00432245 3.97358e-05 43.2245 6971.23 10137.4 
242 9.144 9.144 0 0.00433462 0.00433462 2.27647e-05 43.3462 7063.82 10039.4 
282 8.64 8.64 0 0.00415774 0.00415774 1.49624e-06 41.5774 7644.97 11162.1 
322 0.462 0.462 0 0.000256374 0.000256374 -3.07249e-06 25.9905 7318.36 10713.3 
362 1.072 1.072 0 0.000227521 0.000227521 -1.51685e-06 4.90034 1544.86 2192.25 
402 1.06 1.06 0 0.000194111 0.000194111 -2.48282e-05 5.18789 1531.26 2026.23 
442 1.018 1.018 0 0.000192477 0.000192477 2.11537e-06 4.87248 1454.79 1896.08 
482 1.072 1.072 0 0.000225792 0.000225792 6.83161e-06 5.02126 1533.15 2078.22 
522 0.972 0.972 0 0.00021357 0.00021357 -1.15495e-05 4.61169 1438.21 1884.74 
562 0.928 0.928 0 0.000215221 0.000215221 -3.03625e-06 4.40343 1351.43 1757.39 
602 0.846 0.846 0 0.000192134 0.000192134 7.42757e-06 4.06623 1262.31 1608.16 
642 0.01 0.01 0 -3.98001e-07 -3.98001e-07 3.40257e-07 0.370174 54.3812 148.317 
682 0.022 0.022 0 -6.92266e-06 -6.92266e-06 -3.12265e-08 0.0692266 4.38481 14.8748 
722 0.03 0.03 0 -1.10004e-05 -1.10004e-05 -3.7457e-06 0.110004 22.415 51.633 
762 0.04 0.04 0 -1.50084e-05 -1.50084e-05 -3.38114e-06 0.150084 16.8755 24.8782 
802 0.034 0.034 0 -1.42682e-05 -1.42682e-05 -2.05852e-06 0.142682 16.1925 26.2539 
842 0.03 0.03 0 -1.14439e-05 -1.14439e-05 -8.43769e-09 0.114439 15.3793 25.472 
882 0.024 0.024 0 -8.69206e-06 -8.69206e-06 -3.10747e-06 0.0869206 12.8428 21.85 
922 0.018 0.018 0 -6.56263e-06 -6.56263e-06 9.12581e-07 0.0656263 0.30382 8.7879 
962 0.014 0.014 0 -1.21775e-06 -1.21775e-06 1.5814e-06 0.50708 55.8069 101.644 
1002 0.756 0.756 0 0.000193125 0.000193125 1.95544e-06 3.4608 1235.94 1570.05 
1042 0.876 0.876 0 0.000173135 0.000173135 1.39799e-05 4.36831 1180.72 1557.28 
1082 0.934 0.934 0 0.000214229 0.000214229 -2.86969e-06 4.4791 1451.85 1903.97 
1122 0.964 0.964 0 0.000188 0.000188 1.04137e-06 4.59252 1370.39 1810.19 
1162 0.988 0.988 0 0.000217255 0.000217255 -3.98233e-06 4.62277 1556.59 1975.76 
1202 1.062 1.062 0 0.000206895 0.000206895 9.59807e-06 4.85716 1589.77 2170.32 
1242 1.082 1.082 0 0.000225729 0.000225729 -1.49752e-05 5.00824 1455.14 2171.82 
3 0.146 0.146 0 4.85469e-05 4.85469e-05 -9.82217e-07 6.40892 1984.78 2967.33 
43 8.492 8.492 0 0.00416976 0.00416976 2.35367e-05 41.6976 8135.03 11573.2 
83 9.142 9.142 0 0.0043591 0.0043591 2.16056e-05 43.591 7720.39 10853 
123 9.728 9.728 0 0.00455526 0.00455526 5.27522e-07 45.5526 7071.55 10108.2 
163 9.694 9.694 0 0.00455694 0.00455694 -1.70003e-05 45.5694 6997.54 10202 
203 9.492 9.492 0 0.00445168 0.00445168 1.31301e-05 44.5168 6968.44 10039.8 
243 9.284 9.284 0 0.00439026 0.00439026 6.03832e-06 43.9026 7068.16 10244.9 
283 8.562 8.562 0 0.00418551 0.00418551 -1.11495e-05 41.8551 8249.95 11566.6 
323 0.412 0.412 0 0.000217997 0.000217997 6.67264e-06 21.757 8155.27 11113.8 
363 1.068 1.068 0 0.000229814 0.000229814 -4.06544e-06 4.99535 1669.68 2336.63 
403 1.168 1.168 0 0.000228961 0.000228961 -1.26759e-05 5.51378 1713.03 2384.28 
443 1.028 1.028 0 0.000215349 0.000215349 -4.93844e-06 4.91493 1729.15 2344.91 
483 1.004 1.004 0 0.000202888 0.000202888 -8.28329e-06 4.89292 1417.23 1951.54 
523 1.018 1.018 0 0.000196245 0.000196245 1.07122e-05 4.91681 1359.59 1766.91 
563 0.89 0.89 0 0.000166061 0.000166061 8.32307e-07 4.06463 1161.46 1597.01 
603 0.82 0.82 0 0.00019378 0.00019378 -1.11034e-05 4.06514 1308.58 1774.56 
643 0.006 0.006 0 4.78743e-07 4.78743e-07 2.1547e-07 0.190255 114.972 176.961 
683 0.016 0.016 0 -6.17842e-06 -6.17842e-06 3.55872e-07 0.0617842 2.59324 20.2916 
723 0.044 0.044 0 -1.63081e-05 -1.63081e-05 3.61349e-06 0.163081 40.0515 50.6954 
763 0.034 0.034 0 -1.45062e-05 -1.45062e-05 -1.41896e-06 0.145062 18.7239 50.8277 
803 0.034 0.034 0 -1.42586e-05 -1.42586e-05 -8.23729e-07 0.142586 13.8781 22.5061 
843 0.01 0.01 0 -3.20413e-06 -3.20413e-06 -7.8928e-07 0.0320413 4.1992 6.1419 
883 0.042 0.042 0 -1.44512e-05 -1.44512e-05 6.72561e-07 0.144512 35.3792 62.516 
923 0.016 0.016 0 -7.31589e-06 -7.31589e-06 5.24959e-08 0.0731589 7.01766 24.2691 
963 0.01 0.01 0 -3.60975e-07 -3.60975e-07 -6.22021e-07 0.327875 109.743 159.612 
1003 0.874 0.874 0 0.000188366 0.000188366 8.07812e-06 4.09483 1381.03 1750.46 
1043 0.874 0.874 0 0.000172012 0.000172012 1.04579e-06 4.07113 1281.54 1686.62 
1083 0.926 0.926 0 0.000188578 0.000188578 -4.67867e-07 4.28904 1368.14 1723.76 
1123 0.994 0.994 0 0.000180224 0.000180224 -7.98891e-06 4.75055 1403.07 1905.72 
1163 1.122 1.122 0 0.000231942 0.000231942 6.35403e-06 5.35709 1615.21 2175.24 
1203 1.056 1.056 0 0.000202323 0.000202323 -1.81644e-05 4.91027 1369.9 1938.74 
1243 1.01 1.01 0 0.000195344 0.000195344 8.13824e-06 4.56897 1535.16 2064.7 
4 0.198 0.198 0 7.92279e-05 7.92279e-05 -9.87268e-07 9.8968 3070.08 4592.7 
44 8.422 8.422 0 0.00416505 0.00416505 -4.01767e-05 41.6505 8007.3 11262.2 
84 9.202 9.202 0 0.00434918 0.00434918 -2.56929e-06 43.4918 7137.23 10250.5 
124 9.328 9.328 0 0.00439675 0.00439675 8.80076e-06 43.9675 7136.44 10157.8 
164 9.506 9.506 0 0.00440708 0.00440708 7.28955e-05 44.0708 6790.35 9765.36 
204 9.594 9.594 0 0.00448818 0.00448818 -4.01368e-05 44.8818 7096.65 10207.4 
244 9.084 9.084 0 0.00438609 0.00438609 6.73964e-05 43.8609 7663.64 10671.8 
284 8.498 8.498 0 0.00414846 0.00414846 -7.12494e-05 41.4846 8329.99 11940.1 
324 0.338 0.338 0 0.000185272 0.000185272 7.20968e-06 18.8938 6336.55 8258.72 
364 1.098 1.098 0 0.000218551 0.000218551 1.89e-05 5.10761 1585.48 2292.83 
404 1.096 1.096 0 0.000210318 0.000210318 -3.48069e-06 5.21744 1516.62 2096.5 
444 1.076 1.076 0 0.00022631 0.00022631 -3.57007e-07 5.19704 1664.44 2257.86 
484 0.994 0.994 0 0.000216131 0.000216131 -1.37316e-05 4.72105 1448.06 1877.62 
524 0.992 0.992 0 0.000193853 0.000193853 -8.31083e-06 4.71323 1412.82 1939.04 
564 0.904 0.904 0 0.000183147 0.000183147 -4.97279e-06 4.37232 1322.36 1792.05 
604 0.822 0.822 0 0.00019611 0.00019611 1.84063e-05 3.86182 1314.6 1740.59 
644 0.014 0.014 0 -2.44769e-06 -2.44769e-06 -2.02768e-06 0.519586 44.6198 41.9382 
684 0.026 0.026 0 -1.05081e-05 -1.05081e-05 7.68005e-07 0.105081 16.8027 33.9099 
724 0.03 0.03 0 -1.14283e-05 -1.14283e-05 -1.57703e-07 0.114283 30.494 36.786 
764 0.03 0.03 0 -1.08272e-05 -1.08272e-05 9.79532e-07 0.108272 24.7093 47.9733 
804 0.048 0.048 0 -2.02927e-05 -2.02927e-05 -2.25457e-06 0.202927 33.065 41.1371 
844 0.036 0.036 0 -1.63753e-05 -1.63753e-05 4.01465e-06 0.163753 18.6525 42.7726 
884 0.028 0.028 0 -1.05761e-05 -1.05761e-05 -7.57196e-07 0.105761 14.7971 31.3422 
924 0.032 0.032 0 -1.1495e-05 -1.1495e-05 -8.45887e-07 0.11495 3.38436 5.00125 
964 0.026 0.026 0 -1.48861e-07 -1.48861e-07 1.12391e-06 1.14533 330.094 509.227 
1004 0.744 0.744 0 0.000173939 0.000173939 1.69711e-05 3.48614 1204.26 1503.44 
1044 0.848 0.848 0 0.000164716 0.000164716 -5.47833e-06 4.09781 1174.16 1545.49 
1084 0.938 0.938 0 0.000191947 0.000191947 -9.24096e-06 4.50944 1317.45 1727.02 
1124 1.004 1.004 0 0.000204861 0.000204861 -1.43103e-05 4.89632 1361.67 1805.26 
1164 1.052 1.052 0 0.000219742 0.000219742 -8.41561e-06 4.99129 1535.3 2028.11 
1204 1.094 1.094 0 0.000231081 0.000231081 -2.03421e-05 4.9187 1464.33 2076.92 
1244 1.016 1.016 0 0.000219714 0.000219714 -2.94612e-06 4.78388 1507.66 2194.4 
5 0.198 0.198 0 8.81877e-05 8.81877e-05 -1.73422e-06 9.94667 3604.84 5198.58 
45 8.696 8.696 0 0.00424024 0.00424024 2.72071e-05 42.4024 8644.82 12159.9 
85 9.192 9.192 0 0.00433985 0.00433985 1.03259e-05 43.3985 7015.26 10370.6 
125 9.604 9.604 0 0.00452644 0.00452644 -2.7823e-05 45.2644 7415.82 10735.4 
165 9.616 9.616 0 0.00445514 0.00445514 -4.46495e-07 44.5514 6649.95 9817.12 
205 9.244 9.244 0 0.00431222 0.00431222 4.04675e-05 43.1222 6614.31 9722.25 
245 9.246 9.246 0 0.00442 0.00442 5.46684e-05 44.2 7201.05 10414.2 
285 8.608 8.608 0 0.00416796 0.00416796 1.96017e-05 41.6796 7976.35 11247.5 
325 0.312 0.312 0 0.000155377 0.000155377 -1.93619e-07 16.6341 5053.2 6708.73 
365 1.074 1.074 0 0.000234245 0.000234245 -1.37548e-05 5.02176 1682.16 2367.28 
405 1.074 1.074 0 0.000208447 0.000208447 -8.16399e-07 5.03456 1450.44 2039.85 
445 1.088 1.088 0 0.000222641 0.000222641 9.99875e-06 5.29437 1623.51 2189.56 
485 0.996 0.996 0 0.000187256 0.000187256 -2.71621e-05 4.60433 1389.95 1971.94 
525 0.904 0.904 0 0.000192226 0.000192226 -6.78097e-06 4.16678 1418.66 1782.4 
565 0.936 0.936 0 0.000191786 0.000191786 -4.53318e-06 4.54298 1542.25 1904.93 
605 0.77 0.77 0 0.000185322 0.000185322 -1.60303e-05 3.60624 1169.58 1571.79 
645 0.016 0.016 0 -2.91521e-06 -2.91521e-06 7.50638e-07 0.668986 72.9292 82.5552 
685 0.022 0.022 0 -8.88112e-06 -8.88112e-06 -2.68843e-06 0.0888112 9.57681 33.3231 
725 0.02 0.02 0 -1.0114e-05 -1.0114e-05 2.23492e-06 0.10114 1.56614 8.94648 
765 0.026 0.026 0 -7.39655e-06 -7.39655e-06 -2.36734e-07 0.0739655 21.558 33.7532 
805 0.02 0.02 0 -7.98252e-06 -7.98252e-06 4.77564e-07 0.0798252 9.16675 20.4055 
845 0.038 0.038 0 -1.58929e-05 -1.58929e-05 1.85785e-07 0.158929 15.9767 30.0371 
885 0.026 0.026 0 -1.03381e-05 -1.03381e-05 -3.64e-06 0.103381 16.2236 23.1887 
925 0.028 0.028 0 -1.09364e-05 -1.09364e-05 2.69763e-06 0.109364 21.2069 43.6625 
965 0.026 0.026 0 2.57578e-06 2.57578e-06 3.16941e-06 1.35863 547.397 524.612 
1005 0.826 0.826 0 0.000184897 0.000184897 1.0976e-05 3.97085 1184.15 1537.91 
1045 0.956 0.956 0 0.000198638 0.000198638 6.22267e-06 4.52487 1442.86 1922.16 
1085 0.976 0.976 0 0.000197071 0.000197071 -4.05126e-06 4.69767 1517.2 1912.77 
1125 1.01 1.01 0 0.000194941 0.000194941 1.31759e-05 4.77242 1542.08 1994.55 
1165 1.136 1.136 0 0.000232141 0.000232141 2.03752e-05 5.44292 1814.81 2372.41 
1205 1.086 1.086 0 0.00021058 0.00021058 7.94115e-06 5.05953 1536.8 2235.56 
1245 1.038 1.038 0 0.000222526 0.000222526 -1.33034e-05 4.76981 1678.49 2340 
6 0.262 0.262 0 0.000121729 0.000121729 4.17627e-07 12.9322 4263.18 6365.16 
46 8.306 8.306 0 0.00405466 0.00405466 -4.4196e-05 40.5466 8043.42 11442.4 
86 9.056 9.056 0 0.00428405 0.00428405 5.4271e-06 42.8405 7174.5 10230.1 
126 9.716 9.716 0 0.00453453 0.00453453 -3.80871e-05 45.3453 7599.94 10646.6 
166 9.77 9.77 0 0.00454514 0.00454514 8.37111e-05 45.4514 6958.17 10203.8 
206 9.41 9.41 0 0.00439147 0.00439147 -1.39651e-05 43.9147 7064.19 10138.4 
246 9.338 9.338 0 0.00444313 0.00444313 -1.34167e-05 44.4313 7792.9 11287.7 
286 8.546 8.546 0 0.00416927 0.00416927 3.4942e-05 41.6927 7999.57 11456.6 
326 0.32 0.32 0 0.000170573 0.000170573 -3.06293e-06 17.331 7345.5 9712.01 
366 1.062 1.062 0 0.000227439 0.000227439 -2.94411e-06 4.88418 1629.47 2328.94 
406 1.084 1.084 0 0.000231648 0.000231648 -1.12997e-05 5.1309 1648.67 2237.29 
446 1.112 1.112 0 0.000219869 0.000219869 7.25845e-06 5.45722 1615.04 2217.24 
486 0.952 0.952 0 0.00019131 0.00019131 -1.15782e-06 4.72438 1388.41 1916.37 
526 0.922 0.922 0 0.00019428 0.00019428 7.17115e-06 4.38481 1303.03 1730.29 
566 0.852 0.852 0 0.00019856 0.00019856 1.26224e-06 4.20042 1301.42 1746.61 
606 0.806 0.806 0 0.000185006 0.000185006 -9.86452e-07 3.8203 1230.53 1580.77 
646 0.004 0.004 0 -1.59345e-06 -1.59345e-06 -2.0988e-07 0.142439 32.7387 30.7858 
686 0.024 0.024 0 -9.56712e-06 -9.56712e-06 5.17434e-07 0.0956712 30.4531 39.2977 
726 0.026 0.026 0 -9.32826e-06 -9.32826e-06 4.8625e-07 0.0932826 5.84071 9.80857 
766 0.036 0.036 0 -1.4234e-05 -1.4234e-05 1.97886e-06 0.14234 35.156 53.7989 
806 0.028 0.028 0 -1.19764e-05 -1.19764e-05 4.27815e-06 0.119764 22.3278 47.7085 
846 0.03 0.03 0 -1.3834e-05 -1.3834e-05 -2.48168e-06 0.13834 17.0782 35.2207 
886 0.044 0.044 0 -1.82305e-05 -1.82305e-05 -2.39041e-06 0.182305 22.9487 41.9926 
926 0.014 0.014 0 -5.40886e-06 -5.40886e-06 -6.01958e-07 0.0540886 7.96989 14.6407 
966 0.04 0.04 0 1.14204e-05 1.14204e-05 -1.22624e-06 1.73502 1040.71 1145.17 
1006 0.82 0.82 0 0.000184301 0.000184301 -2.1314e-05 3.89322 1299.11 1687.69 
1046 0.89 0.89 0 0.000184526 0.000184526 1.65863e-05 4.20154 1359.02 1777.43 
1086 0.942 0.942 0 0.000176251 0.000176251 1.6897e-06 4.4757 1355.14 1720.58 
1126 1.014 1.014 0 0.000201851 0.000201851 6.25015e-06 4.93143 1500.82 1971.05 
1166 1.076 1.076 0 0.000206462 0.000206462 1.37149e-05 5.15522 1652.94 2252.91 
1206 1.166 1.166 0 0.000245713 0.000245713 -1.36856e-05 5.43413 1680.07 2422.2 
1246 1.016 1.016 0 0.000193111 0.000193111 -1.52542e-06 4.51214 1484.88 2091.16 
7 0.248 0.248 0 0.000119758 0.000119758 1.02634e-05 12.0253 4909.8 6412.45 
47 8.398 8.398 0 0.00404886 0.00404886 -1.79613e-05 40.4886 7805.45 11293.8 
87 9.378 9.378 0 0.00439876 0.00439876 -2.0379e-05 43.9876 7444.27 10833.6 
127 9.506 9.506 0 0.00441508 0.00441508 5.29983e-06 44.1508 6449.75 9480.5 
167 9.646 9.646 0 0.00450846 0.00450846 2.85404e-05 45.0846 6978.28 10033.1 
207 9.74 9.74 0 0.0045378 0.0045378 2.16381e-05 45.378 7028.74 10010.5 
247 9.352 9.352 0 0.00439606 0.00439606 -3.49408e-05 43.9606 7463.24 10847.5 
287 8.404 8.404 0 0.00410514 0.00410514 9.56198e-06 41.0514 8388.69 11759.3 
327 0.246 0.246 0 0.000107343 0.000107343 8.44376e-06 11.5726 3646.46 5262.91 
367 1.002 1.002 0 0.000212535 0.000212535 1.22144e-05 4.69344 1437.38 1991.48 
407 1.04 1.04 0 0.000178766 0.000178766 -6.34148e-06 4.95923 1379.03 1926.24 
447 1.148 1.148 0 0.000229106 0.000229106 1.65279e-05 5.48422 1785.26 2460.4 
487 1.062 1.062 0 0.000222422 0.000222422 1.49116e-05 4.99087 1739.46 2264.32 
527 0.964 0.964 0 0.000176039 0.000176039 1.09907e-05 4.56329 1399.31 1823.21 
567 0.928 0.928 0 0.00020379 0.00020379 1.15323e-06 4.37587 1363.41 1783.34 
607 0.848 0.848 0 0.000188218 0.000188218 4.0218e-06 4.02708 1207.45 1609.15 
647 0.01 0.01 0 -2.71134e-06 -2.71134e-06 2.61142e-06 0.360228 65.5678 108.775 
687 0.02 0.02 0 -5.82826e-06 -5.82826e-06 -2.62026e-07 0.0582826 6.11763 15.0818 
727 0.038 0.038 0 -1.56622e-05 -1.56622e-05 -1.56429e-06 0.156622 25.9214 53.6884 
767 0.044 0.044 0 -1.79822e-05 -1.79822e-05 1.60075e-07 0.179822 13.1651 30.0152 
807 0.034 0.034 0 -1.08163e-05 -1.08163e-05 1.16326e-06 0.108163 -3.12107 3.39829 
847 0.046 0.046 0 -1.68375e-05 -1.68375e-05 9.43204e-07 0.168375 21.1208 54.243 
887 0.04 0.04 0 -1.63691e-05 -1.63691e-05 -1.1787e-06 0.163691 30.2033 43.8246 
927 0.034 0.034 0 -1.23275e-05 -1.23275e-05 -3.01569e-06 0.123275 15.3789 32.51 
967 0.06 0.06 0 6.93201e-06 6.93201e-06 5.71634e-06 2.72603 731.539 1059.53 
1007 0.86 0.86 0 0.00019003 0.00019003 -4.57813e-06 4.13119 1327.33 1798.4 
1047 0.826 0.826 0 0.000172282 0.000172282 1.77676e-05 3.99513 1151.38 1570.54 
1087 0.992 0.992 0 0.00022059 0.00022059 -8e-06 4.66806 1484.05 1901 
1127 1.02 1.02 0 0.000196365 0.000196365 2.78794e-06 4.88314 1330.37 1766.45 
1167 1.068 1.068 0 0.000197882 0.000197882 -1.38946e-05 5.08731 1529.4 2074.78 
1207 1.046 1.046 0 0.000191841 0.000191841 5.37881e-06 4.86415 1470.27 2137.08 
1247 1.07 1.07 0 0.00020413 0.00020413 -2.45863e-05 4.94513 1368 2122.25 
8 0.348 0.348 0 0.000189708 0.000189708 6.36217e-06 19.0467 6506.03 8714.49 
48 8.78 8.78 0 0.00432023 0.00432023 -3.44062e-06 43.2023 8112.87 11547.5 
88 9.144 9.144 0 0.00428744 0.00428744 -1.34655e-05 42.8744 7192.84 10422.2 
128 9.496 9.496 0 0.0044149 0.0044149 -8.98076e-06 44.149 6937.01 10066.7 
168 9.476 9.476 0 0.00440825 0.00440825 -1.12486e-05 44.0825 6922.18 10139.6 
208 9.63 9.63 0 0.00453081 0.00453081 -2.81978e-05 45.3081 7207.03 10437.3 
248 9.338 9.338 0 0.00442987 0.00442987 -1.98755e-05 44.2987 7374.98 10701.7 
288 8.452 8.452 0 0.00408733 0.00408733 2.2456e-05 40.8733 8028.54 11354.9 
328 0.174 0.174 0 6.84562e-05 6.84562e-05 -8.39877e-07 8.35488 2232 3452.5 
368 1.072 1.072 0 0.000213419 0.000213419 -2.59882e-06 4.96847 1573.26 2196.18 
408 1.024 1.024 0 0.00022927 0.00022927 2.85327e-06 4.95087 1587.09 2084.94 
448 0.99 0.99 0 0.000199678 0.000199678 -1.39324e-05 4.72094 1471.45 1952.69 
488 0.986 0.986 0 0.0001987 0.0001987 5.72113e-06 4.69539 1440 1920.9 
528 0.852 0.852 0 0.000158322 0.000158322 -9.58336e-06 4.05191 1181.34 1542.14 
568 0.84 0.84 0 0.000175207 0.000175207 1.00568e-05 4.0987 1227.38 1666.66 
608 0.756 0.756 0 0.000163384 0.000163384 2.93392e-06 3.54046 1056.48 1367.98 
648 0.01 0.01 0 -2.7734e-06 -2.7734e-06 -7.54984e-07 0.302621 86.7387 144.928 
688 0.024 0.024 0 -7.22602e-06 -7.22602e-06 1.88783e-07 0.0722602 11.2281 18.8132 
728 0.026 0.026 0 -1.03112e-05 -1.03112e-05 -1.77558e-06 0.103112 2.51609 11.3812 
768 0.042 0.042 0 -1.78674e-05 -1.78674e-05 -4.88485e-06 0.178674 45.5652 55.6714 
808 0.042 0.042 0 -1.59063e-05 -1.59063e-05 1.19574e-06 0.159063 13.1359 30.4054 
848 0.032 0.032 0 -1.1627e-05 -1.1627e-05 -1.53938e-06 0.11627 35.9077 47.9734 
888 0.034 0.034 0 -1.17922e-05 -1.17922e-05 2.59259e-07 0.117922 4.8955 14.2703 
928 0.032 0.032 0 -1.1443e-05 -1.1443e-05 -2.39642e-06 0.11443 10.2259 12.3386 
968 0.052 0.052 0 1.1993e-05 1.1993e-05 2.5378e-06 2.42426 1049.66 1408.55 
1008 0.856 0.856 0 0.000167795 0.000167795 -2.16264e-06 4.17528 1267.2 1624.96 
1048 1.004 1.004 0 0.000189303 0.000189303 -4.41455e-06 4.70282 1416.67 1952.46 
1088 0.88 0.88 0 0.000164153 0.000164153 -2.68869e-05 4.2852 1303.2 1773.96 
1128 1 1 0 0.000198683 0.000198683 2.65853e-06 4.8675 1410.69 1962.64 
1168 1.012 1.012 0 0.000209299 0.000209299 -2.23643e-06 4.73925 1499.37 1953.71 
1208 1.034 1.034 0 0.000224653 0.000224653 4.888e-06 4.68594 1515.04 2008.34 
1248 1.078 1.078 0 0.000199275 0.000199275 2.21708e-05 4.9905 1443.33 2077.34 
9 0.306 0.306 0 0.000165561 0.000165561 2.62297e-06 17.428 6150.48 7947.55 
49 8.618 8.618 0 0.00419075 0.00419075 9.12625e-05 41.9075 8243.09 11640.3 
89 9.362 9.362 0 0.00444188 0.00444188 -4.47586e-05 44.4188 7620.54 10788.4 
129 9.122 9.122 0 0.00428795 0.00428795 -7.97955e-05 42.8795 7030.37 9953.46 
169 9.024 9.024 0 0.004222 0.004222 -8.53717e-07 42.22 6679.63 9597.18 
209 9.666 9.666 0 0.00446466 0.00446466 -1.6659e-05 44.6466 7071.21 10280 
249 9.09 9.09 0 0.00429696 0.00429696 -4.23122e-06 42.9696 7283.29 10260.4 
289 8.524 8.524 0 0.00413754 0.00413754 8.63065e-06 41.3754 8114.58 11647.4 
329 0.146 0.146 0 5.57183e-05 5.57183e-05 2.82786e-07 7.09694 1883.96 2888.15 
369 1.136 1.136 0 0.000218695 0.000218695 2.23547e-05 5.38965 1730.71 2422.15 
409 1.072 1.072 0 0.000186857 0.000186857 -2.38149e-05 5.10706 1429.5 1982.97 
449 0.972 0.972 0 0.00020294 0.00020294 -1.74115e-05 4.64146 1453.23 1966.11 
489 0.942 0.942 0 0.000183763 0.000183763 4.31716e-06 4.50877 1284.41 1857.3 
529 0.992 0.992 0 0.00019908 0.00019908 2.14267e-06 4.88412 1373.45 1755.18 
569 0.908 0.908 0 0.000178735 0.000178735 -7.71454e-06 4.14868 1369 1812.78 
609 0.788 0.788 0 0.000189529 0.000189529 5.25099e-06 3.76987 1292.34 1644.11 
649 0.006 0.006 0 -1.98942e-06 -1.98942e-06 5.01306e-07 0.202159 10.7774 68.7608 
689 0.032 0.032 0 -1.16096e-05 -1.16096e-05 1.98211e-06 0.116096 4.87536 26.5961 
729 0.046 0.046 0 -1.7413e-05 -1.7413e-05 2.69195e-06 0.17413 4.3844 9.41756 
769 0.026 0.026 0 -1.133e-05 -1.133e-05 -6.87453e-07 0.1133 10.8478 16.8812 
809 0.042 0.042 0 -1.78698e-05 -1.78698e-05 3.14624e-06 0.178698 24.1452 44.419 
849 0.034 0.034 0 -1.45096e-05 -1.45096e-05 -2.32898e-06 0.145096 20.3541 30.9743 
889 0.032 0.032 0 -1.19662e-05 -1.19662e-05 -3.74634e-06 0.119662 9.03434 12.9501 
929 0.028 0.028 0 -9.54729e-06 -9.54729e-06 -1.05592e-06 0.0954729 22.4973 38.7217 
969 0.048 0.048 0 1.42727e-05 1.42727e-05 -2.89597e-06 2.44472 1005.05 1289.32 
1009 0.806 0.806 0 0.000190702 0.000190702 -2.31655e-06 3.90874 1175.99 1566.37 
1049 0.896 0.896 0 0.000182285 0.000182285 -1.295e-06 4.24952 1270 1645.07 
1089 0.946 0.946 0 0.000179287 0.000179287 1.75454e-06 4.37604 1228.71 1641.36 
1129 1.006 1.006 0 0.0001921 0.0001921 8.06897e-06 4.71036 1188.45 1680.37 
1169 1.086 1.086 0 0.000225152 0.000225152 2.27075e-05 5.12492 1696.23 2241.22 
1209 1.054 1.054 0 0.000210322 0.000210322 1.55795e-05 5.0627 1547.51 2192.88 
1249 1.07 1.07 0 0.000219979 0.000219979 2.27459e-07 4.94447 1581.42 2268.86 
10 0.412 0.412 0 0.000220379 0.000220379 -1.52598e-06 21.8094 6972.48 9003.64 
50 9.002 9.002 0 0.00431679 0.00431679 -1.73585e-05 43.1679 8381.77 11995.7 
90 9.192 9.192 0 0.00437466 0.00437466 6.18888e-05 43.7466 7481.8 10412.8 
130 9.622 9.622 0 0.00449095 0.00449095 1.30113e-07 44.9095 7060.53 10197.1 
170 9.562 9.562 0 0.0044975 0.0044975 1.93026e-05 44.975 6698.08 9758.69 
210 9.45 9.45 0 0.00447518 0.00447518 -1.08902e-06 44.7518 7074.46 10224.2 
250 9.13 9.13 0 0.00432719 0.00432719 1.79652e-05 43.2719 7745.33 10739.7 
290 8.312 8.312 0 0.00405253 0.00405253 1.97074e-05 40.5253 7862.38 11313.9 
330 0.168 0.168 0 6.31551e-05 6.31551e-05 6.44204e-07 8.11624 2465.97 3938.85 
370 1.146 1.146 0 0.000240438 0.000240438 5.00022e-06 5.2675 1683.81 2376.99 
410 1.138 1.138 0 0.000234712 0.000234712 1.18424e-06 5.24114 1757.77 2342.71 
450 0.976 0.976 0 0.000189707 0.000189707 8.22945e-06 4.68011 1452.16 1868.09 
490 0.968 0.968 0 0.000189485 0.000189485 1.03884e-05 4.47606 1383.29 1813.91 
530 1.002 1.002 0 0.000192366 0.000192366 4.3593e-06 4.74842 1500.19 1961.22 
570 0.846 0.846 0 0.000196989 0.000196989 -2.35539e-06 4.13811 1278.63 1738.3 
610 0.818 0.818 0 0.000204632 0.000204632 -1.2289e-05 3.99382 1272.16 1683.54 
650 0.002 0.002 0 -7.78381e-07 -7.78381e-07 2.76802e-07 0.0889059 23.0672 118.207 
690 0.036 0.036 0 -1.21631e-05 -1.21631e-05 -9.91649e-07 0.121631 12.4081 29.6888 
730 0.034 0.034 0 -1.30044e-05 -1.30044e-05 9.02908e-07 0.130044 6.24637 9.34171 
770 0.018 0.018 0 -6.20957e-06 -6.20957e-06 -1.69439e-08 0.0620957 3.27927 14.291 
810 0.026 0.026 0 -9.48371e-06 -9.48371e-06 2.99889e-06 0.0948371 7.63052 11.105 
850 0.03 0.03 0 -1.28492e-05 -1.28492e-05 -1.36017e-06 0.128492 26.7175 23.5694 
890 0.034 0.034 0 -1.42417e-05 -1.42417e-05 -2.57262e-06 0.142417 15.7455 24.7013 
930 0.032 0.032 0 -1.17243e-05 -1.17243e-05 -2.39206e-06 0.117243 14.2292 16.4494 
970 0.166 0.166 0 3.87514e-05 3.87514e-05 -7.42649e-06 3.30181 887.704 1278.44 
1010 0.792 0.792 0 0.000180558 0.000180558 2.63539e-06 3.79633 1281.56 1731.87 
1050 0.888 0.888 0 0.000195726 0.000195726 -3.66552e-06 4.11398 1387.1 1769.4 
1090 0.956 0.956 0 0.00017979 0.00017979 9.30596e-06 4.56409 1447 1878.05 
1130 1.024 1.024 0 0.000208606 0.000208606 1.77964e-05 4.80408 1538.99 2065.24 
1170 0.982 0.982 0 0.000191845 0.000191845 -1.0766e-05 4.57648 1357.27 1806.99 
1210 1.03 1.03 0 0.000188998 0.000188998 -9.28024e-06 4.83562 1425.48 1921.83 
1250 1.134 1.134 0 0.000210119 0.000210119 -2.14511e-05 5.21573 1559.22 2320.62 
11 0.452 0.452 0 0.000243181 0.000243181 1.23042e-05 24.2967 7418.15 10522.5 
51 8.596 8.596 0 0.00415476 0.00415476 4.85121e-06 41.5476 7918.42 11372.8 
91 9.238 9.238 0 0.00435351 0.00435351 -5.86002e-05 43.5351 7063.94 10371.5 
131 9.274 9.274 0 0.00435175 0.00435175 3.40722e-05 43.5175 6638.75 9468.04 
171 9.518 9.518 0 0.00441894 0.00441894 -5.94412e-05 44.1894 6899.98 9894.48 
211 9.578 9.578 0 0.00447701 0.00447701 3.05657e-07 44.7701 7041.91 10369.7 
251 9.004 9.004 0 0.00432618 0.00432618 -1.18713e-05 43.2618 7434.85 10711.3 
291 8.5 8.5 0 0.00413454 0.00413454 6.38122e-06 41.3454 8171.58 11873.3 
331 0.164 0.164 0 6.1179e-05 6.1179e-05 1.08046e-06 8.68281 3093.29 4651.79 
371 1.086 1.086 0 0.000238068 0.000238068 -1.09172e-05 4.98373 1699.4 2435.06 
411 1.058 1.058 0 0.000216047 0.000216047 8.05096e-06 4.96784 1813.47 2426.84 
451 1.058 1.058 0 0.000198999 0.000198999 1.37668e-06 4.7189 1413.62 1908.69 
491 1.042 1.042 0 0.000222181 0.000222181 9.7943e-06 5.06111 1396.37 1937.32 
531 0.976 0.976 0 0.000198892 0.000198892 -2.26915e-06 4.64941 1360.64 1792.35 
571 0.928 0.928 0 0.000181812 0.000181812 -5.77505e-06 4.47789 1289.23 1802.81 
611 0.842 0.842 0 0.000188627 0.000188627 -4.09388e-06 4.00761 1275.02 1601.93 
651 0 0 0 0 0 0 0 0 0 
691 0.038 0.038 0 -1.38169e-05 -1.38169e-05 -2.10724e-06 0.138169 26.0471 40.1703 
731 0.028 0.028 0 -1.21031e-05 -1.21031e-05 -2.50012e-07 0.121031 6.80614 22.5278 
771 0.034 0.034 0 -1.37358e-05 -1.37358e-05 1.82947e-07 0.137358 12.0432 18.043 
811 0.038 0.038 0 -1.36953e-05 -1.36953e-05 1.2517e-06 0.136953 8.61056 19.0444 
851 0.042 0.042 0 -1.34557e-05 -1.34557e-05 -2.07156e-06 0.134557 19.5713 33.6238 
891 0.032 0.032 0 -1.36752e-05 -1.36752e-05 -2.63165e-06 0.136752 25.6917 72.1238 
931 0.028 0.028 0 -9.87604e-06 -9.87604e-06 -1.1466e-06 0.0987604 0.492885 5.39948 
971 0.166 0.166 0 4.30479e-05 4.30479e-05 2.91442e-06 3.34209 1185.76 1618.73 
1011 0.776 0.776 0 0.00014714 0.00014714 -4.78864e-06 3.59441 988.084 1308.05 
1051 0.85 0.85 0 0.000174522 0.000174522 -1.74851e-05 4.03649 1235.51 1583.87 
1091 0.906 0.906 0 0.000194719 0.000194719 -1.05338e-05 4.21381 1401.57 1838.41 
1131 0.986 0.986 0 0.000185806 0.000185806 4.98485e-06 4.75226 1400.73 1839.2 
1171 0.94 0.94 0 0.000176397 0.000176397 2.36538e-06 4.35464 1287.79 1753.37 
1211 1.066 1.066 0 0.000211363 0.000211363 2.15848e-05 5.03514 1756.49 2447.02 
1251 1.11 1.11 0 0.000233659 0.000233659 4.8252e-06 5.30179 1926.87 2633.19 
12 0.488 0.488 0 0.000279435 0.000279435 -7.7591e-06 27.6792 7430.36 11406.1 
52 8.704 8.704 0 0.0041815 0.0041815 8.73441e-06 41.815 7667.57 10891.8 
92 9.29 9.29 0 0.00439772 0.00439772 -3.98242e-05 43.9772 7497.26 10743.3 
132 9.324 9.324 0 0.00438334 0.00438334 1.94314e-05 43.8334 7008.46 10156.6 
172 9.73 9.73 0 0.00458307 0.00458307 1.63571e-05 45.8307 7188.9 10351.7 
212 9.53 9.53 0 0.00440236 0.00440236 1.91179e-05 44.0236 6808.44 9795.08 
252 9.048 9.048 0 0.00432973 0.00432973 1.44299e-05 43.2973 7241.05 10274.9 
292 8.25 8.25 0 0.00404347 0.00404347 -2.87024e-05 40.4347 7996.04 11407.4 
332 0.142 0.142 0 3.15363e-05 3.15363e-05 5.3042e-06 6.38345 1883.66 3319.55 
372 1.012 1.012 0 0.000199617 0.000199617 -6.21901e-07 4.63119 1438.38 2193.1 
412 0.986 0.986 0 0.000217323 0.000217323 8.68473e-06 4.6876 1541.96 2124.76 
452 1.036 1.036 0 0.000191107 0.000191107 -8.98527e-07 4.91808 1573.9 2160.7 
492 0.966 0.966 0 0.000209843 0.000209843 -1.85236e-06 4.64978 1526.09 1931.43 
532 0.914 0.914 0 0.000172951 0.000172951 2.87207e-06 4.30735 1120.94 1553.71 
572 0.914 0.914 0 0.000211346 0.000211346 6.21341e-06 4.39123 1447.97 1819.21 
612 0.766 0.766 0 0.000171375 0.000171375 -9.33517e-06 3.73268 1060.73 1446.23 
652 0.006 0.006 0 -2.21631e-06 -2.21631e-06 1.83856e-06 0.0886525 9.61927 22.743 
692 0.026 0.026 0 -1.07506e-05 -1.07506e-05 -2.71006e-06 0.107506 7.20013 13.4709 
732 0.04 0.04 0 -1.68523e-05 -1.68523e-05 -2.29406e-07 0.168523 22.0815 33.1109 
772 0.012 0.012 0 -5.28811e-06 -5.28811e-06 4.40923e-07 0.0528811 17.8521 33.2568 
812 0.03 0.03 0 -1.21752e-05 -1.21752e-05 -3.48366e-06 0.121752 28.7566 43.1275 
852 0.052 0.052 0 -2.27977e-05 -2.27977e-05 2.2718e-06 0.227977 7.70808 39.8003 
892 0.024 0.024 0 -7.34042e-06 -7.34042e-06 -1.25868e-06 0.0734042 11.7285 27.5043 
932 0.038 0.038 0 -1.57727e-05 -1.57727e-05 -1.78195e-06 0.157727 36.2108 63.9725 
972 0.328 0.328 0 9.50792e-05 9.50792e-05 3.81e-06 3.18445 1328.45 1597.27 
1012 0.784 0.784 0 0.000171453 0.000171453 2.87063e-06 3.6543 1275.25 1574.24 
1052 0.838 0.838 0 0.000167706 0.000167706 -1.32765e-05 4.01193 1194.61 1611.53 