ITEM: TIMESTEP
20000
ITEM: NUMBER OF SURFS
1272
ITEM: BOX BOUNDS oo rr pp
0 0.3
0 0.3
-0.5 0.5
ITEM: SURFS id f_5[1] f_5[2] f_5[3] f_5[4] f_5[5] f_5[6] f_5[7] f_5[8] f_5[9] 
1 0.1295 0.1295 0 3.505e-05 3.505e-05 -5.13742e-07 5.86223 1927.13 2700.85 
41 8.3897 8.3897 0 0.00413177 0.00413177 -6.84656e-07 41.3177 8419.67 11901 
81 9.1952 9.1952 0 0.00438107 0.00438107 -2.24481e-06 43.8107 7440.64 10705.3 
121 9.4505 9.4505 0 0.00443617 0.00443617 6.83743e-06 44.3617 7006.59 10169.5 
161 9.5026 9.5026 0 0.00444415 0.00444415 4.45903e-06 44.4415 6952.79 9958.04 
201 9.4948 9.4948 0 0.00445365 0.00445365 -8.5664e-06 44.5365 7094.51 10234.8 
241 9.3429 9.3429 0 0.0044209 0.0044209 6.91539e-06 44.209 7370.55 10591.3 
281 8.6504 8.6504 0 0.00418411 0.00418411 -5.35461e-06 41.8411 7946.62 11337.1 
321 0.5071 0.5071 0 0.000290226 0.000290226 1.93106e-06 28.6529 8935.82 12262.2 
361 1.0612 1.0612 0 0.000215396 0.000215396 7.60506e-07 4.95907 1581 2277.24 
401 1.0509 1.0509 0 0.000207273 0.000207273 -1.09351e-07 4.99243 1515.82 2117.9 
441 1.0206 1.0206 0 0.00020277 0.00020277 1.54145e-06 4.83914 1465 2022.55 
481 0.9807 0.9807 0 0.000198154 0.000198154 -2.53333e-06 4.65698 1446.3 1930.12 
521 0.9505 0.9505 0 0.000193488 0.000193488 2.09266e-07 4.54752 1431.99 1892.59 
561 0.8796 0.8796 0 0.000185942 0.000185942 -1.24601e-06 4.18782 1300.88 1720.78 
601 0.8075 0.8075 0 0.000183211 0.000183211 -1.89446e-06 3.85083 1257.32 1629.31 
641 0.0218 0.0218 0 1.02154e-06 1.02154e-06 -1.11555e-07 0.877453 314.862 433.277 
681 0.0188 0.0188 0 -6.94917e-06 -6.94917e-06 4.13542e-07 0.0694917 10.7631 19.7996 
721 0.0231 0.0231 0 -8.83924e-06 -8.83924e-06 -9.66689e-08 0.0883924 8.71526 21.4628 
761 0.0223 0.0223 0 -8.47859e-06 -8.47859e-06 2.2269e-07 0.0847859 8.54757 20.2019 
801 0.0205 0.0205 0 -7.50699e-06 -7.50699e-06 5.05805e-07 0.0750699 9.14338 19.1476 
841 0.0227 0.0227 0 -8.68457e-06 -8.68457e-06 3.92482e-08 0.0868457 7.54733 20.6644 
881 0.0247 0.0247 0 -9.40752e-06 -9.40752e-06 -3.90479e-07 0.0940752 14.898 26.7926 
921 0.0185 0.0185 0 -6.75447e-06 -6.75447e-06 -4.76882e-07 0.0675447 11.5774 18.7236 
961 0.0102 0.0102 0 -9.19865e-07 -9.19865e-07 1.23201e-07 0.346557 101.841 146.388 
1001 0.783 0.783 0 0.000176816 0.000176816 -3.97464e-08 3.7143 1177.7 1543.53 
1041 0.8896 0.8896 0 0.000185748 0.000185748 -2.13203e-06 4.2728 1300.18 1716.27 
1081 0.9277 0.9277 0 0.000183887 0.000183887 2.25786e-06 4.45471 1327.8 1772.84 
1121 0.9799 0.9799 0 0.000198872 0.000198872 6.33085e-07 4.67894 1433.68 1936.3 
1161 0.9962 0.9962 0 0.0002001 0.0002001 6.39998e-07 4.74079 1486.72 1991.34 
1201 1.0496 1.0496 0 0.000211833 0.000211833 -2.20847e-07 4.96226 1575.53 2171.52 
1241 1.0661 1.0661 0 0.000219776 0.000219776 -2.1909e-06 4.96458 1570.31 2228.96 
2 0.1524 0.1524 0 4.58491e-05 4.58491e-05 5.22322e-07 7.16483 2308.31 3340.2 
42 8.3625 8.3625 0 0.00410766 0.00410766 1.79284e-07 41.0766 8207.68 11665.2 
82 9.1731 9.1731 0 0.00435493 0.00435493 -4.23537e-06 43.5493 7439.12 10702.5 
122 9.5013 9.5013 0 0.00446903 0.00446903 8.31674e-06 44.6903 7086.75 10219.4 
162 9.555 9.555 0 0.00447144 0.00447144 -5.29544e-06 44.7144 7041.99 10140.3 
202 9.4409 9.4409 0 0.00442883 0.00442883 3.96397e-06 44.2883 7029.18 10178.8 
242 9.1928 9.1928 0 0.00436273 0.00436273 -7.84542e-06 43.6273 7264.8 10410.4 
282 8.6472 8.6472 0 0.00419009 0.00419009 -2.7445e-06 41.9009 7986.72 11370.2 
322 0.4462 0.4462 0 0.000253532 0.000253532 1.95594e-06 25.0067 7956.32 11019.4 
362 1.0435 1.0435 0 0.000208491 0.000208491 2.05236e-07 4.84187 1535.74 2193.83 
402 1.0358 1.0358 0 0.000204267 0.000204267 5.547e-07 4.88738 1518.65 2115.63 
442 1.0049 1.0049 0 0.000201259 0.000201259 -2.82034e-06 4.79017 1497.57 2023.28 
482 0.9835 0.9835 0 0.000189341 0.000189341 -7.05567e-07 4.66048 1423.17 1908.79 
522 0.9412 0.9412 0 0.000191625 0.000191625 1.29243e-06 4.49656 1375.15 1837.05 
562 0.8853 0.8853 0 0.000184339 0.000184339 -2.71368e-06 4.23928 1280.8 1707.93 
602 0.8061 0.8061 0 0.000184085 0.000184085 -1.72833e-06 3.81769 1237.65 1615.21 
642 0.0162 0.0162 0 -3.60171e-07 -3.60171e-07 7.06742e-08 0.619172 178.91 264.265 
682 0.0198 0.0198 0 -7.08394e-06 -7.08394e-06 -2.16187e-07 0.0708394 9.63344 18.7261 
722 0.0208 0.0208 0 -7.80223e-06 -7.80223e-06 1.1941e-07 0.0780223 8.1892 19.2826 
762 0.0213 0.0213 0 -7.89509e-06 -7.89509e-06 -1.05772e-09 0.0789509 9.90663 18.5835 
802 0.0221 0.0221 0 -8.10797e-06 -8.10797e-06 -4.13109e-07 0.0810797 8.98449 15.9231 
842 0.0203 0.0203 0 -7.68422e-06 -7.68422e-06 -6.19487e-07 0.0768422 9.25645 19.3957 
882 0.021 0.021 0 -8.01535e-06 -8.01535e-06 -7.83458e-08 0.0801535 10.6128 19.5596 
922 0.0181 0.0181 0 -6.5844e-06 -6.5844e-06 -3.38964e-07 0.065844 7.54235 15.8398 
962 0.0111 0.0111 0 -7.10816e-07 -7.10816e-07 4.89691e-07 0.40482 103.111 160.14 
1002 0.7988 0.7988 0 0.000184164 0.000184164 9.46748e-07 3.8266 1259.51 1634.01 
1042 0.8668 0.8668 0 0.00018351 0.00018351 1.2844e-06 4.15636 1240.86 1644.56 
1082 0.9426 0.9426 0 0.00018102 0.00018102 -4.34482e-06 4.49665 1357.54 1818.2 
1122 0.9707 0.9707 0 0.000188198 0.000188198 -1.25832e-06 4.61224 1378.85 1856.61 
1162 1.0084 1.0084 0 0.00020375 0.00020375 5.21123e-06 4.76091 1489.65 2006.09 
1202 1.019 1.019 0 0.000201805 0.000201805 1.52932e-06 4.76276 1524.23 2101.38 
1242 1.0604 1.0604 0 0.000218888 0.000218888 -1.17929e-07 4.93937 1596.78 2239.5 
3 0.1681 0.1681 0 5.91361e-05 5.91361e-05 -2.61009e-07 8.31583 2803.47 4028.17 
43 8.4435 8.4435 0 0.00414933 0.00414933 -1.76321e-06 41.4933 8231.26 11675 
83 9.1457 9.1457 0 0.00434448 0.00434448 -3.59484e-06 43.4448 7374.38 10583 
123 9.5105 9.5105 0 0.00447659 0.00447659 -5.1104e-06 44.7659 7174.43 10378.4 
163 9.603 9.603 0 0.00449356 0.00449356 -1.01636e-05 44.9356 7092.93 10278.4 
203 9.502 9.502 0 0.004449 0.004449 -2.15252e-06 44.49 7100.6 10234.4 
243 9.243 9.243 0 0.00438492 0.00438492 -2.21979e-06 43.8492 7375.32 10619 
283 8.6947 8.6947 0 0.00422652 0.00422652 6.571e-06 42.2652 8021.77 11442.6 
323 0.4141 0.4141 0 0.000228658 0.000228658 1.92058e-06 22.7259 7441.07 10261.7 
363 1.0452 1.0452 0 0.000214926 0.000214926 -1.37618e-06 4.88284 1549.46 2222.27 
403 1.0582 1.0582 0 0.000209203 0.000209203 -1.81945e-06 4.95663 1543.18 2126.14 
443 1.0034 1.0034 0 0.00020205 0.00020205 -1.42274e-06 4.78549 1500.48 2055.77 
483 0.9734 0.9734 0 0.000194543 0.000194543 -8.95158e-07 4.6468 1436.59 1925.02 
523 0.9275 0.9275 0 0.000186566 0.000186566 4.40531e-06 4.42531 1365.86 1797.51 
563 0.8825 0.8825 0 0.000183262 0.000183262 -1.55185e-06 4.20926 1306.09 1701.94 
603 0.8139 0.8139 0 0.000185774 0.000185774 -2.34261e-06 3.89147 1246.54 1614.8 
643 0.0118 0.0118 0 -4.82354e-07 -4.82354e-07 -8.22964e-08 0.439755 137.921 196.226 
683 0.02 0.02 0 -7.47176e-06 -7.47176e-06 3.36256e-08 0.0747176 5.56183 13.2019 
723 0.0219 0.0219 0 -7.91844e-06 -7.91844e-06 -9.94386e-08 0.0791844 10.1839 20.0974 
763 0.0227 0.0227 0 -8.96675e-06 -8.96675e-06 2.75537e-07 0.0896675 9.22585 17.7372 
803 0.0205 0.0205 0 -7.82665e-06 -7.82665e-06 2.40272e-07 0.0782665 7.65985 18.0236 
843 0.0224 0.0224 0 -8.50277e-06 -8.50277e-06 -1.93135e-07 0.0850277 8.43708 16.3286 
883 0.0208 0.0208 0 -7.82657e-06 -7.82657e-06 3.61983e-07 0.0782657 10.5863 19.6163 
923 0.021 0.021 0 -7.16717e-06 -7.16717e-06 6.13468e-08 0.0716717 8.86257 21.5762 
963 0.0157 0.0157 0 -2.35444e-07 -2.35444e-07 -5.05032e-07 0.619712 198.488 254.673 
1003 0.8059 0.8059 0 0.000186897 0.000186897 -1.97623e-06 3.85021 1259.91 1643.68 
1043 0.883 0.883 0 0.00018415 0.00018415 -6.82342e-07 4.19502 1300.01 1718.65 
1083 0.9353 0.9353 0 0.000189482 0.000189482 7.59242e-07 4.47492 1367.66 1821.2 
1123 0.9793 0.9793 0 0.000189193 0.000189193 -3.55333e-06 4.65072 1411.33 1913.72 
1163 1.027 1.027 0 0.000207676 0.000207676 -2.89647e-06 4.87288 1492.38 2027.77 
1203 1.0651 1.0651 0 0.000212656 0.000212656 1.10993e-06 5.02846 1561.05 2182.49 
1243 1.0404 1.0404 0 0.000214651 0.000214651 1.46094e-06 4.81953 1556.88 2201.05 
4 0.2112 0.2112 0 8.05217e-05 8.05217e-05 -6.22748e-07 10.3967 3420.98 4933.14 
44 8.4827 8.4827 0 0.00415691 0.00415691 3.74028e-06 41.5691 8211.6 11578.6 
84 9.1612 9.1612 0 0.00434866 0.00434866 -4.16018e-06 43.4866 7405.77 10562.3 
124 9.4477 9.4477 0 0.00442509 0.00442509 -2.26474e-06 44.2509 7043.05 10167.5 
164 9.6152 9.6152 0 0.00448764 0.00448764 -3.19568e-08 44.8764 7006.11 10121.1 
204 9.5329 9.5329 0 0.00446709 0.00446709 -3.64632e-06 44.6709 7093.72 10222.6 
244 9.2294 9.2294 0 0.00437346 0.00437346 1.00613e-05 43.7346 7386.63 10562.1 
284 8.5727 8.5727 0 0.00416933 0.00416933 -5.00788e-06 41.6933 8097.82 11465.3 
324 0.3762 0.3762 0 0.000201688 0.000201688 -1.63196e-07 20.5807 6801.92 9283.92 
364 1.047 1.047 0 0.000216406 0.000216406 1.77518e-06 4.87955 1564.51 2225.25 
404 1.0502 1.0502 0 0.000212886 0.000212886 -1.11255e-06 4.95192 1594.54 2186.39 
444 1.0207 1.0207 0 0.000206097 0.000206097 3.3528e-06 4.8474 1503.63 2043.32 
484 0.9726 0.9726 0 0.000192594 0.000192594 -3.14652e-06 4.63464 1393.94 1869.69 
524 0.92 0.92 0 0.000183045 0.000183045 8.02006e-07 4.37712 1311.31 1764.31 
564 0.8938 0.8938 0 0.000184149 0.000184149 -5.78144e-07 4.28497 1296.37 1725.98 
604 0.7843 0.7843 0 0.000180112 0.000180112 4.80659e-07 3.74456 1232.09 1609.46 
644 0.0095 0.0095 0 -1.2294e-06 -1.2294e-06 -6.43679e-09 0.353798 80.9197 104.477 
684 0.0195 0.0195 0 -7.19518e-06 -7.19518e-06 -7.76597e-08 0.0719518 11.4683 19.6042 
724 0.0211 0.0211 0 -8.30903e-06 -8.30903e-06 3.94947e-07 0.0830903 10.6598 20.4579 
764 0.0217 0.0217 0 -7.45443e-06 -7.45443e-06 -1.25795e-07 0.0745443 8.90986 19.4573 
804 0.0216 0.0216 0 -7.85099e-06 -7.85099e-06 9.22073e-08 0.0785099 10.5092 21.4515 
844 0.023 0.023 0 -8.80968e-06 -8.80968e-06 -3.50982e-07 0.0880968 12.1959 22.951 
884 0.0225 0.0225 0 -8.31343e-06 -8.31343e-06 -1.9277e-07 0.0831343 11.4202 20.5097 
924 0.0217 0.0217 0 -7.84071e-06 -7.84071e-06 4.20385e-07 0.0784071 11.2481 22.106 
964 0.0202 0.0202 0 8.97211e-07 8.97211e-07 -2.31815e-07 0.808258 279.336 371.36 
1004 0.7947 0.7947 0 0.000183182 0.000183182 2.73345e-06 3.81788 1228.54 1595.08 
1044 0.8808 0.8808 0 0.000180973 0.000180973 -4.52357e-07 4.19407 1275.05 1707.71 
1084 0.9385 0.9385 0 0.000190806 0.000190806 -3.26773e-06 4.45474 1346.31 1796.82 
1124 0.9795 0.9795 0 0.000191722 0.000191722 7.62109e-07 4.70702 1405.46 1881.23 
1164 1.0155 1.0155 0 0.000205359 0.000205359 3.12429e-06 4.82926 1491.13 2006.44 
1204 1.0578 1.0578 0 0.000210842 0.000210842 -8.94495e-07 4.93463 1517.46 2103.28 
1244 1.0787 1.0787 0 0.000218735 0.000218735 -2.40308e-07 5.04884 1594.49 2250.1 
5 0.2346 0.2346 0 0.000100009 0.000100009 1.21229e-06 11.7887 3936.11 5624.01 
45 8.4846 8.4846 0 0.0041574 0.0041574 -6.51544e-07 41.574 8157.04 11603.3 
85 9.1945 9.1945 0 0.00434878 0.00434878 1.06946e-07 43.4878 7320.45 10556 
125 9.4668 9.4668 0 0.00443228 0.00443228 1.01036e-06 44.3228 7149.88 10310.2 
165 9.5775 9.5775 0 0.00447609 0.00447609 1.14351e-05 44.7609 7015.87 10176.4 
205 9.5025 9.5025 0 0.00445021 0.00445021 1.07935e-05 44.5021 7070.05 10195.6 
245 9.2064 9.2064 0 0.00436684 0.00436684 5.49595e-06 43.6684 7358.68 10539.2 
285 8.5589 8.5589 0 0.00417138 0.00417138 2.39792e-06 41.7138 8014.06 11417.7 
325 0.3349 0.3349 0 0.000172773 0.000172773 -2.43535e-06 18.0167 6093.74 8355.85 
365 1.0469 1.0469 0 0.000215785 0.000215785 3.10674e-06 4.84275 1590.01 2269.12 
405 1.0502 1.0502 0 0.000211212 0.000211212 3.49171e-06 4.97901 1537.85 2138.99 
445 1.0297 1.0297 0 0.000208757 0.000208757 -2.87869e-06 4.88652 1544.29 2086.25 
485 0.989 0.989 0 0.000199015 0.000199015 4.26949e-06 4.69067 1441.89 1927.6 
525 0.932 0.932 0 0.000188905 0.000188905 -1.99202e-06 4.43469 1352.41 1785.4 
565 0.8925 0.8925 0 0.000191253 0.000191253 1.73685e-06 4.25007 1313.78 1704.88 
605 0.7918 0.7918 0 0.000183166 0.000183166 -1.5849e-06 3.78286 1223.53 1600.33 
645 0.0082 0.0082 0 -1.59411e-06 -1.59411e-06 -5.5665e-07 0.315433 45.3807 104.313 
685 0.0207 0.0207 0 -8.04293e-06 -8.04293e-06 -3.72701e-07 0.0804293 10.1104 20.5412 
725 0.0208 0.0208 0 -7.82946e-06 -7.82946e-06 -4.81865e-07 0.0782946 7.77727 17.4781 
765 0.0191 0.0191 0 -7.0141e-06 -7.0141e-06 -2.2911e-07 0.070141 11.4263 20.8141 
805 0.0219 0.0219 0 -8.20443e-06 -8.20443e-06 5.38297e-07 0.0820443 9.80617 20.193 
845 0.0241 0.0241 0 -9.41802e-06 -9.41802e-06 8.06675e-08 0.0941802 11.1764 23.4254 
885 0.0205 0.0205 0 -7.89564e-06 -7.89564e-06 1.57089e-07 0.0789564 10.0309 17.7568 
925 0.0205 0.0205 0 -7.40094e-06 -7.40094e-06 -5.64082e-08 0.0740094 10.8174 24.3358 
965 0.0278 0.0278 0 2.4926e-06 2.4926e-06 8.94734e-07 1.07839 425.886 549.2 
1005 0.7884 0.7884 0 0.000175575 0.000175575 3.82785e-07 3.77644 1216.12 1569.62 
1045 0.9022 0.9022 0 0.000184743 0.000184743 3.42026e-08 4.28816 1328.24 1752.76 
1085 0.9424 0.9424 0 0.000187311 0.000187311 1.17716e-06 4.48934 1359.72 1807.26 
1125 0.9683 0.9683 0 0.000191557 0.000191557 -4.77919e-06 4.58043 1402.99 1883.08 
1165 1.0306 1.0306 0 0.000209182 0.000209182 -2.13713e-06 4.86147 1556.62 2120.99 
1205 1.0429 1.0429 0 0.000206898 0.000206898 1.9791e-06 4.94132 1515.28 2105.44 
1245 1.0633 1.0633 0 0.00022119 0.00022119 -2.24445e-06 4.92754 1613.75 2308.61 
6 0.2626 0.2626 0 0.000121932 0.000121932 -1.2118e-06 13.5303 4609.82 6451.79 
46 8.4741 8.4741 0 0.00414397 0.00414397 3.14538e-06 41.4397 8082.04 11513 
86 9.2492 9.2492 0 0.00437802 0.00437802 1.01397e-05 43.7802 7332.19 10540.6 
126 9.5068 9.5068 0 0.00445793 0.00445793 6.958e-07 44.5793 7139.61 10322.8 
166 9.5303 9.5303 0 0.00445774 0.00445774 5.09628e-06 44.5774 6968.57 10101.4 
206 9.4398 9.4398 0 0.00443198 0.00443198 6.11669e-07 44.3198 7099.46 10251.4 
246 9.2173 9.2173 0 0.00438662 0.00438662 8.66402e-06 43.8662 7488.7 10725.2 
286 8.5978 8.5978 0 0.00419282 0.00419282 -1.44392e-06 41.9282 8102.76 11524.6 
326 0.2988 0.2988 0 0.000149836 0.000149836 -1.954e-06 15.7703 5570.3 7744.34 
366 1.04 1.04 0 0.000215729 0.000215729 1.8344e-06 4.83933 1564.32 2208.08 
406 1.07 1.07 0 0.000213998 0.000213998 4.68343e-06 5.0253 1553.64 2150.86 
446 1.0126 1.0126 0 0.000196678 0.000196678 -1.55237e-06 4.7997 1486.03 2025.84 
486 0.967 0.967 0 0.000191388 0.000191388 4.56307e-07 4.61969 1383.21 1861.88 
526 0.9498 0.9498 0 0.00019379 0.00019379 3.71069e-06 4.49739 1397.16 1856.99 
566 0.8659 0.8659 0 0.000180565 0.000180565 -1.58088e-06 4.12105 1264.88 1673.82 
606 0.7794 0.7794 0 0.000181163 0.000181163 7.04248e-07 3.75186 1226.09 1598.06 
646 0.0049 0.0049 0 -8.9219e-07 -8.9219e-07 1.01723e-07 0.154413 31.9883 48.8738 
686 0.018 0.018 0 -6.66844e-06 -6.66844e-06 -1.53907e-07 0.0666844 13.9232 23.2894 
726 0.0247 0.0247 0 -8.86852e-06 -8.86852e-06 -1.60231e-07 0.0886852 12.0959 22.3589 
766 0.0207 0.0207 0 -7.7646e-06 -7.7646e-06 -7.63855e-08 0.077646 13.2992 22.4502 
806 0.0219 0.0219 0 -8.49874e-06 -8.49874e-06 9.0751e-08 0.0849874 11.1742 21.871 
846 0.0216 0.0216 0 -8.50512e-06 -8.50512e-06 -4.58108e-07 0.0850512 13.346 23.8639 
886 0.02 0.02 0 -7.38575e-06 -7.38575e-06 3.56626e-08 0.0738575 8.07256 17.5297 
926 0.021 0.021 0 -7.59761e-06 -7.59761e-06 -5.6997e-07 0.0759761 11.4329 22.0985 
966 0.0322 0.0322 0 4.43812e-06 4.43812e-06 -7.89319e-07 1.37797 485.578 647.092 
1006 0.8111 0.8111 0 0.000187705 0.000187705 -2.20006e-06 3.87027 1279.64 1646.3 
1046 0.8882 0.8882 0 0.000184323 0.000184323 -5.84606e-06 4.22659 1292.15 1706.27 
1086 0.9466 0.9466 0 0.000188401 0.000188401 5.1899e-07 4.47538 1364.33 1824.55 
1126 0.9903 0.9903 0 0.000195082 0.000195082 -3.26531e-06 4.70516 1409.72 1902.19 
1166 1.0154 1.0154 0 0.000203255 0.000203255 5.20957e-06 4.84062 1521.84 2065.39 
1206 1.056 1.056 0 0.000204189 0.000204189 -9.14073e-07 4.98709 1557.47 2166.24 
1246 1.0483 1.0483 0 0.000212408 0.000212408 1.93715e-07 4.85014 1545.97 2241.57 
7 0.2889 0.2889 0 0.000141113 0.000141113 1.32054e-06 15.11 5126.37 7093.88 
47 8.5083 8.5083 0 0.00414789 0.00414789 -5.51118e-06 41.4789 8045.9 11504.5 
87 9.2171 9.2171 0 0.00436559 0.00436559 3.77531e-06 43.6559 7438.82 10724.1 
127 9.4622 9.4622 0 0.00443968 0.00443968 -9.77501e-06 44.3968 7011.47 10117.9 
167 9.5997 9.5997 0 0.00448644 0.00448644 -8.14456e-06 44.8644 7021.17 10130.8 
207 9.4884 9.4884 0 0.00445144 0.00445144 -2.00231e-06 44.5144 7034.38 10098.2 
247 9.2209 9.2209 0 0.004388 0.004388 4.5758e-06 43.88 7508.25 10732.2 
287 8.4689 8.4689 0 0.00413833 0.00413833 -3.17609e-06 41.3833 8094.82 11418.6 
327 0.254 0.254 0 0.000119507 0.000119507 2.25812e-07 13.2501 4436.82 6104.09 
367 1.0526 1.0526 0 0.000209365 0.000209365 2.87153e-06 4.89013 1560.12 2188.84 
407 1.0318 1.0318 0 0.00021017 0.00021017 -2.58596e-06 4.90878 1563.97 2145.58 
447 1.014 1.014 0 0.000201002 0.000201002 2.79503e-06 4.87728 1505.05 2053.05 
487 0.9682 0.9682 0 0.000195099 0.000195099 1.09695e-06 4.63283 1439.4 1928.05 
527 0.9359 0.9359 0 0.000183681 0.000183681 3.19524e-08 4.45954 1336.18 1790.55 
567 0.8685 0.8685 0 0.000181858 0.000181858 -1.42984e-06 4.13633 1241.14 1633.59 
607 0.7764 0.7764 0 0.000182594 0.000182594 -2.13281e-06 3.71633 1175.2 1523.65 
647 0.0038 0.0038 0 -9.1888e-07 -9.1888e-07 1.69739e-07 0.131615 29.4882 50.7777 
687 0.0204 0.0204 0 -6.99579e-06 -6.99579e-06 -2.81624e-07 0.0699579 11.5871 20.8846 
727 0.0223 0.0223 0 -8.49574e-06 -8.49574e-06 -1.9012e-07 0.0849574 9.95506 21.9249 
767 0.0212 0.0212 0 -8.19685e-06 -8.19685e-06 -2.00612e-07 0.0819685 13.9863 24.1214 
807 0.0259 0.0259 0 -9.50506e-06 -9.50506e-06 8.10244e-08 0.0950506 10.3163 25.8724 
847 0.0224 0.0224 0 -8.25215e-06 -8.25215e-06 1.07887e-07 0.0825215 13.3646 26.7806 
887 0.0204 0.0204 0 -7.62383e-06 -7.62383e-06 1.75059e-08 0.0762383 14.843 23.8358 
927 0.02 0.02 0 -7.09225e-06 -7.09225e-06 3.34911e-07 0.0709225 8.29115 20.5987 
967 0.0437 0.0437 0 7.89921e-06 7.89921e-06 -6.12816e-07 1.99911 787.899 1033.35 
1007 0.8201 0.8201 0 0.000184857 0.000184857 -8.28336e-07 3.94495 1279.2 1664.75 
1047 0.8968 0.8968 0 0.000185999 0.000185999 4.18732e-07 4.26198 1305.73 1722.44 
1087 0.9546 0.9546 0 0.000190781 0.000190781 -4.41276e-06 4.5814 1382.96 1829.23 
1127 0.9712 0.9712 0 0.000190185 0.000190185 1.48954e-06 4.64468 1402.79 1889.61 
1167 1.0142 1.0142 0 0.000200314 0.000200314 2.72447e-06 4.79939 1501.43 2033.99 
1207 1.0365 1.0365 0 0.000211229 0.000211229 -3.10511e-07 4.90957 1556.45 2155.68 
1247 1.0644 1.0644 0 0.000220414 0.000220414 -6.48575e-06 4.96841 1642.77 2325.33 
8 0.3316 0.3316 0 0.000171333 0.000171333 1.46678e-06 17.6084 5935.27 8245.86 
48 8.5714 8.5714 0 0.00416985 0.00416985 -1.66566e-06 41.6985 8048.15 11437.9 
88 9.2436 9.2436 0 0.00437174 0.00437174 -3.97535e-06 43.7174 7376.42 10548.8 
128 9.519 9.519 0 0.00444985 0.00444985 -8.31202e-06 44.4985 7049.73 10182.2 
168 9.5686 9.5686 0 0.00446391 0.00446391 -4.40975e-06 44.6391 6927.06 10059.1 
208 9.5048 9.5048 0 0.00445536 0.00445536 -4.86912e-06 44.5536 7148.7 10338.7 
248 9.2366 9.2366 0 0.00437893 0.00437893 1.96556e-07 43.7893 7359.61 10631.4 
288 8.5216 8.5216 0 0.00417274 0.00417274 -5.90473e-07 41.7274 8203.32 11682.1 
328 0.2272 0.2272 0 9.588e-05 9.588e-05 5.36138e-07 11.4912 3800.22 5553.49 
368 1.0556 1.0556 0 0.000214326 0.000214326 -3.60715e-06 4.92744 1534.34 2164.3 
408 1.0451 1.0451 0 0.000209514 0.000209514 -1.61061e-07 4.90598 1540.05 2137.36 
448 1.0042 1.0042 0 0.000202162 0.000202162 -2.45026e-06 4.77661 1492.92 2013.2 
488 0.9841 0.9841 0 0.000198061 0.000198061 3.6298e-06 4.6988 1401.9 1898.48 
528 0.9321 0.9321 0 0.000186716 0.000186716 -5.08446e-07 4.45751 1323.58 1766.83 
568 0.869 0.869 0 0.000179941 0.000179941 7.29108e-07 4.13504 1266 1685.6 
608 0.791 0.791 0 0.00018507 0.00018507 -5.10623e-06 3.8221 1262.07 1632.04 
648 0.004 0.004 0 -1.11757e-06 -1.11757e-06 5.85922e-08 0.133199 29.3572 40.007 
688 0.0224 0.0224 0 -7.65725e-06 -7.65725e-06 -5.85911e-07 0.0765725 6.96813 15.4606 
728 0.0196 0.0196 0 -7.35019e-06 -7.35019e-06 -3.60076e-07 0.0735019 8.68296 19.9314 
768 0.0263 0.0263 0 -9.89904e-06 -9.89904e-06 -5.961e-07 0.0989904 13.9767 27.8579 
808 0.0255 0.0255 0 -1.01396e-05 -1.01396e-05 -1.30427e-07 0.101396 14.9054 26.0674 
848 0.0238 0.0238 0 -8.98005e-06 -8.98005e-06 1.96459e-07 0.0898005 15.5225 26.3849 
888 0.0222 0.0222 0 -8.84482e-06 -8.84482e-06 1.41334e-09 0.0884482 9.47086 19.8971 
928 0.0199 0.0199 0 -6.87512e-06 -6.87512e-06 -4.33632e-07 0.0687512 10.1415 17.3424 
968 0.0526 0.0526 0 1.15541e-05 1.15541e-05 1.41772e-07 2.49803 995.425 1316.77 
1008 0.8047 0.8047 0 0.000177076 0.000177076 1.65331e-06 3.85704 1240.95 1610.43 
1048 0.8987 0.8987 0 0.000185212 0.000185212 -3.6832e-06 4.27579 1292.43 1709.5 
1088 0.9504 0.9504 0 0.000191383 0.000191383 2.95191e-07 4.53625 1387.71 1849.27 
1128 1.001 1.001 0 0.000201611 0.000201611 2.04977e-06 4.75267 1477.69 1985.45 
1168 1.0279 1.0279 0 0.000209542 0.000209542 -2.4412e-06 4.83124 1552.48 2092.84 
1208 1.0616 1.0616 0 0.000212838 0.000212838 2.79302e-06 4.95998 1556.23 2159.07 
1248 1.0463 1.0463 0 0.000208263 0.000208263 1.02036e-06 4.85804 1545.67 2202.18 
9 0.3668 0.3668 0 0.000196554 0.000196554 1.23498e-06 20.0356 6447.22 8915.55 
49 8.6027 8.6027 0 0.00418945 0.00418945 1.13184e-06 41.8945 8100.04 11496.3 
89 9.2608 9.2608 0 0.00439135 0.00439135 -4.0893e-06 43.9135 7446.15 10684.8 
129 9.4634 9.4634 0 0.00442839 0.00442839 1.31327e-07 44.2839 7075.64 10186.3 
169 9.537 9.537 0 0.00445781 0.00445781 3.77924e-06 44.5781 6946.96 10058.5 
209 9.5023 9.5023 0 0.00444684 0.00444684 -3.11883e-07 44.4684 7073.39 10241.1 
249 9.2296 9.2296 0 0.0043796 0.0043796 -7.30258e-07 43.796 7393.85 10631.4 
289 8.483 8.483 0 0.00415359 0.00415359 -1.35599e-05 41.5359 8232.04 11626.9 
329 0.1901 0.1901 0 7.36272e-05 7.36272e-05 1.14105e-06 9.41929 3071.19 4406.06 
369 1.0505 1.0505 0 0.00021674 0.00021674 1.28554e-06 4.88793 1548.23 2192.24 
409 1.0252 1.0252 0 0.000200621 0.000200621 -3.58363e-06 4.8445 1509.84 2104.29 
449 1.0044 1.0044 0 0.00020354 0.00020354 -1.8741e-06 4.73663 1473.72 1993.87 
489 0.9694 0.9694 0 0.000187033 0.000187033 4.4748e-06 4.64732 1387.05 1885.6 
529 0.9214 0.9214 0 0.000187573 0.000187573 -3.00297e-08 4.39951 1319.48 1757 
569 0.8585 0.8585 0 0.000176077 0.000176077 2.33294e-06 4.09713 1242.01 1642.9 
609 0.7573 0.7573 0 0.000181932 0.000181932 2.76619e-07 3.65272 1198.97 1544.76 
649 0.0024 0.0024 0 -6.4621e-07 -6.4621e-07 8.13095e-08 0.0765309 14.3557 22.5104 
689 0.0209 0.0209 0 -7.62847e-06 -7.62847e-06 -6.33123e-07 0.0762847 9.73802 17.7865 
729 0.0229 0.0229 0 -8.41798e-06 -8.41798e-06 -2.72525e-07 0.0841798 12.4053 22.866 
769 0.0223 0.0223 0 -8.28416e-06 -8.28416e-06 2.85379e-07 0.0828416 11.1996 19.9104 
809 0.0244 0.0244 0 -9.53488e-06 -9.53488e-06 -4.15687e-08 0.0953488 15.5845 27.9078 
849 0.0203 0.0203 0 -8.06443e-06 -8.06443e-06 4.97964e-07 0.0806443 10.5003 19.6201 
889 0.0232 0.0232 0 -8.43804e-06 -8.43804e-06 2.5799e-07 0.0843804 11.1265 21.1261 
929 0.0224 0.0224 0 -7.9733e-06 -7.9733e-06 -4.3671e-07 0.079733 10.8392 18.6641 
969 0.0581 0.0581 0 1.47575e-05 1.47575e-05 -6.06708e-08 2.76113 936.622 1233.04 
1009 0.8202 0.8202 0 0.000185362 0.000185362 6.76417e-07 3.94127 1266.53 1632.59 
1049 0.8747 0.8747 0 0.000184502 0.000184502 -2.00321e-06 4.15775 1308.7 1730.24 
1089 0.9549 0.9549 0 0.000191471 0.000191471 -3.63005e-06 4.54689 1355.61 1808.98 
1129 0.9833 0.9833 0 0.000195392 0.000195392 6.72863e-07 4.67084 1422.36 1925.51 
1169 1.0213 1.0213 0 0.000202985 0.000202985 5.62498e-07 4.87581 1534.39 2069.01 
1209 1.0435 1.0435 0 0.000213604 0.000213604 -2.67235e-06 4.91662 1543.9 2156.13 
1249 1.0663 1.0663 0 0.000217529 0.000217529 4.06309e-06 4.89462 1563.15 2230.34 
10 0.4117 0.4117 0 0.000224197 0.000224197 1.14439e-06 22.4389 7112.48 9687.34 
50 8.631 8.631 0 0.00419388 0.00419388 -1.63893e-06 41.9388 8041.11 11509.2 
90 9.2365 9.2365 0 0.00437276 0.00437276 -2.8636e-06 43.7276 7352.48 10523.4 
130 9.5471 9.5471 0 0.00447397 0.00447397 -5.14531e-06 44.7397 7168.23 10330.7 
170 9.5629 9.5629 0 0.00446954 0.00446954 -8.68681e-06 44.6954 6946.7 10030.4 
210 9.4544 9.4544 0 0.00443669 0.00443669 4.95616e-06 44.3669 7185.53 10370.5 
250 9.1768 9.1768 0 0.00435127 0.00435127 -1.41053e-05 43.5127 7442.83 10641.9 
290 8.3867 8.3867 0 0.00412643 0.00412643 1.61599e-07 41.2643 8110.88 11482.1 
330 0.1676 0.1676 0 6.02546e-05 6.02546e-05 1.42083e-06 8.11783 2733.83 3972.86 
370 1.0435 1.0435 0 0.000213969 0.000213969 -1.58384e-06 4.8817 1583.8 2212.84 
410 1.0414 1.0414 0 0.000211559 0.000211559 5.07354e-07 4.89022 1547.52 2131.35 
450 0.9977 0.9977 0 0.000196958 0.000196958 2.2188e-06 4.72512 1483.9 2000.74 
490 0.9697 0.9697 0 0.000196078 0.000196078 -4.27639e-07 4.57268 1423.19 1898.01 
530 0.9348 0.9348 0 0.000188364 0.000188364 -5.0978e-07 4.45854 1386.68 1822.24 
570 0.8594 0.8594 0 0.000182202 0.000182202 -3.68622e-06 4.05544 1258.92 1656.88 
610 0.781 0.781 0 0.00018675 0.00018675 1.28849e-06 3.72314 1242.02 1606.09 
650 0.0019 0.0019 0 -6.48649e-07 -6.48649e-07 2.6419e-07 0.0722055 11.906 22.3203 
690 0.0205 0.0205 0 -7.49132e-06 -7.49132e-06 3.71973e-07 0.0749132 7.07704 18.9193 
730 0.0241 0.0241 0 -9.38407e-06 -9.38407e-06 4.07368e-08 0.0938407 9.04473 20.4053 
770 0.0218 0.0218 0 -8.43024e-06 -8.43024e-06 -3.9663e-07 0.0843024 9.09605 22.6981 
810 0.0252 0.0252 0 -9.14852e-06 -9.14852e-06 6.7066e-07 0.0914852 11.9047 24.8459 
850 0.0227 0.0227 0 -8.65392e-06 -8.65392e-06 -5.6967e-07 0.0865392 10.2068 21.233 
890 0.0203 0.0203 0 -7.76932e-06 -7.76932e-06 2.71496e-07 0.0776932 12.5676 22.3963 
930 0.0199 0.0199 0 -7.32037e-06 -7.32037e-06 -2.01828e-07 0.0732037 7.92296 19.4362 
970 0.1654 0.1654 0 4.52581e-05 4.52581e-05 -1.21649e-06 3.26277 1166.07 1476.91 
1010 0.7996 0.7996 0 0.00017507 0.00017507 -1.74351e-07 3.84677 1217.72 1595.79 
1050 0.9004 0.9004 0 0.000184499 0.000184499 -8.32598e-07 4.2899 1293.67 1691.33 
1090 0.9537 0.9537 0 0.000190568 0.000190568 8.64244e-07 4.5399 1365.38 1804.89 
1130 0.9924 0.9924 0 0.000194766 0.000194766 2.25008e-06 4.74497 1440.24 1945.4 
1170 1.0215 1.0215 0 0.00020352 0.00020352 2.99402e-06 4.83602 1495.61 2052.2 
1210 1.0417 1.0417 0 0.000206108 0.000206108 -2.82685e-06 4.88215 1534.69 2121.71 
1250 1.0478 1.0478 0 0.000212484 0.000212484 -2.05356e-06 4.81513 1537.82 2198.1 
11 0.4569 0.4569 0 0.000261631 0.000261631 1.15462e-06 25.7582 8560.53 11642.5 
51 8.646 8.646 0 0.00419559 0.00419559 2.49553e-06 41.9559 7891.48 11254.6 
91 9.2366 9.2366 0 0.00436442 0.00436442 -1.20711e-06 43.6442 7327.53 10519.6 
131 9.486 9.486 0 0.00444931 0.00444931 1.6948e-05 44.4931 7088.39 10192.6 
171 9.6155 9.6155 0 0.00451338 0.00451338 -2.1618e-06 45.1338 7110.45 10228.9 
211 9.4954 9.4954 0 0.00446408 0.00446408 3.81037e-06 44.6408 7180.36 10373.7 
251 9.1819 9.1819 0 0.00437175 0.00437175 -1.45981e-05 43.7175 7499.53 10732.1 
291 8.3834 8.3834 0 0.00411415 0.00411415 2.12943e-06 41.1415 8209.39 11602 
331 0.1441 0.1441 0 4.53155e-05 4.53155e-05 4.40303e-07 7.02342 2246.5 3196.4 
371 1.054 1.054 0 0.000214993 0.000214993 1.60793e-06 4.88847 1598 2225.79 
411 1.0322 1.0322 0 0.000205929 0.000205929 -9.51641e-07 4.86964 1540.46 2117.74 
451 1.0188 1.0188 0 0.000210593 0.000210593 3.17574e-06 4.78522 1485.95 2026.71 
491 0.9781 0.9781 0 0.000195818 0.000195818 -2.0156e-06 4.66295 1413.73 1895.5 
531 0.9265 0.9265 0 0.000187934 0.000187934 4.18979e-06 4.41915 1354.58 1795.58 
571 0.8663 0.8663 0 0.000189908 0.000189908 -1.42629e-06 4.0844 1297.42 1705.57 
611 0.7716 0.7716 0 0.000181506 0.000181506 -1.23157e-06 3.68209 1208.19 1563.79 
651 0.0023 0.0023 0 -6.67686e-07 -6.67686e-07 -2.33593e-08 0.0688602 10.8846 24.1308 
691 0.0211 0.0211 0 -7.8456e-06 -7.8456e-06 2.18888e-07 0.078456 10.5707 23.0526 
731 0.0246 0.0246 0 -9.12692e-06 -9.12692e-06 2.14748e-07 0.0912692 11.787 25.1732 
771 0.0241 0.0241 0 -9.23032e-06 -9.23032e-06 1.36965e-07 0.0923032 13.3906 23.8561 
811 0.0198 0.0198 0 -7.20367e-06 -7.20367e-06 3.39364e-07 0.0720367 9.8488 17.7293 
851 0.0233 0.0233 0 -8.4753e-06 -8.4753e-06 -2.42124e-07 0.084753 12.1052 20.0786 
891 0.0215 0.0215 0 -8.29676e-06 -8.29676e-06 -2.37096e-07 0.0829676 10.0641 22.9277 
931 0.0212 0.0212 0 -7.397e-06 -7.397e-06 -2.31444e-07 0.07397 6.08929 15.6307 
971 0.1618 0.1618 0 4.35477e-05 4.35477e-05 6.54171e-08 3.12879 1131.42 1411.42 
1011 0.8024 0.8024 0 0.000182851 0.000182851 -1.51582e-06 3.82809 1244.24 1597.52 
1051 0.9006 0.9006 0 0.000181769 0.000181769 6.74975e-07 4.2803 1264.82 1684.12 
1091 0.9461 0.9461 0 0.000193999 0.000193999 8.45028e-07 4.53895 1394.64 1840.59 
1131 0.9938 0.9938 0 0.000196419 0.000196419 -9.45935e-07 4.7518 1434.11 1929.7 
1171 1.0231 1.0231 0 0.000209445 0.000209445 -2.63177e-06 4.84885 1544.63 2083.57 
1211 1.043 1.043 0 0.000206452 0.000206452 6.68094e-08 4.91515 1513.54 2129.2 
1251 1.0794 1.0794 0 0.000225745 0.000225745 2.13358e-06 4.96005 1636.32 2330.49 
12 0.508 0.508 0 0.000285693 0.000285693 2.7157e-07 28.1999 8739.26 12109.9 
52 8.6691 8.6691 0 0.00420715 0.00420715 4.21294e-06 42.0715 7887.04 11247.3 
92 9.2437 9.2437 0 0.00437655 0.00437655 3.27781e-06 43.7655 7322.54 10541.8 
132 9.5251 9.5251 0 0.00446372 0.00446372 3.70661e-06 44.6372 7167.43 10301.7 
172 9.597 9.597 0 0.00448813 0.00448813 -4.56002e-06 44.8813 7072.15 10106.9 
212 9.4367 9.4367 0 0.00442381 0.00442381 -2.53841e-06 44.2381 7072.72 10150.7 
252 9.1816 9.1816 0 0.00435108 0.00435108 -3.66465e-06 43.5108 7442.94 10641.5 
292 8.3651 8.3651 0 0.00412153 0.00412153 4.96316e-06 41.2153 8365.18 11783.3 
332 0.129 0.129 0 3.62611e-05 3.62611e-05 4.32187e-07 6.07861 2153.13 3089.96 
372 1.0598 1.0598 0 0.000214192 0.000214192 -3.32887e-07 4.91487 1588.16 2245.03 
412 1.0419 1.0419 0 0.000210903 0.000210903 1.29786e-06 4.9275 1539.57 2119.19 
452 1.002 1.002 0 0.00019891 0.00019891 2.62969e-07 4.7669 1477.99 2004.56 
492 0.9759 0.9759 0 0.00019873 0.00019873 -2.25945e-06 4.60736 1442.34 1928.79 
532 0.9381 0.9381 0 0.00018849 0.00018849 1.65474e-07 4.50463 1345.5 1798.08 
572 0.8545 0.8545 0 0.0001799 0.0001799 3.79073e-08 4.08904 1284.02 1670.97 