ITEM: TIMESTEP
15000
ITEM: NUMBER OF SURFS
1272
ITEM: BOX BOUNDS oo rr pp
0 0.3
0 0.3
-0.5 0.5
ITEM: SURFS id f_5[1] f_5[2] f_5[3] f_5[4] f_5[5] f_5[6] f_5[7] f_5[8] f_5[9] 
1 0.1 0.1 0 3.38597e-05 3.38597e-05 1.06744e-06 6.30763 1940.61 2894.98 
41 6.3006 6.3006 0 0.00416191 0.00416191 1.22274e-05 41.6191 8441.51 11907.3 
81 6.8736 6.8736 0 0.00437756 0.00437756 1.00903e-05 43.7756 7654.86 10951.8 
121 7.0398 7.0398 0 0.00442547 0.00442547 3.82469e-06 44.2547 7163.23 10357.4 
161 7.2061 7.2061 0 0.0045001 0.0045001 -8.01862e-07 45.001 7203.31 10361 
201 7.1091 7.1091 0 0.00444568 0.00444568 5.9342e-06 44.4568 7152.92 10300.3 
241 6.9334 6.9334 0 0.00438312 0.00438312 5.71535e-06 43.8312 7435.16 10677.6 
281 6.5476 6.5476 0 0.00424598 0.00424598 1.32267e-06 42.4598 8139.26 11537 
321 0.3808 0.3808 0 0.000292818 0.000292818 -7.3062e-07 28.7877 9592.35 12943.8 
361 0.7525 0.7525 0 0.000202842 0.000202842 -2.58487e-06 4.66846 1485.03 2135.69 
401 0.7654 0.7654 0 0.000203899 0.000203899 1.25067e-06 4.81079 1525.88 2105.29 
441 0.747 0.747 0 0.000206881 0.000206881 1.09483e-06 4.74877 1488.02 2013.82 
481 0.7175 0.7175 0 0.000193987 0.000193987 -2.67002e-06 4.56793 1436.73 1936.48 
521 0.6888 0.6888 0 0.000186411 0.000186411 -1.33005e-06 4.39485 1351.42 1789.27 
561 0.6554 0.6554 0 0.000187119 0.000187119 -1.1003e-06 4.16524 1328.33 1744.83 
601 0.5782 0.5782 0 0.000177287 0.000177287 1.57148e-06 3.71931 1196.52 1562.78 
641 0.0134 0.0134 0 6.81547e-07 6.81547e-07 -7.81389e-08 0.657663 244.376 317.474 
681 0.0134 0.0134 0 -6.42852e-06 -6.42852e-06 -1.6587e-07 0.0642852 8.69621 15.0788 
721 0.011 0.011 0 -5.44117e-06 -5.44117e-06 2.3616e-07 0.0544117 5.53968 12.3006 
761 0.012 0.012 0 -6.40391e-06 -6.40391e-06 1.90525e-07 0.0640391 7.52398 16.9912 
801 0.0124 0.0124 0 -5.88248e-06 -5.88248e-06 -9.98137e-09 0.0588248 6.43009 10.5472 
841 0.0107 0.0107 0 -5.07444e-06 -5.07444e-06 6.21707e-07 0.0507444 8.17096 19.1772 
881 0.0117 0.0117 0 -6.0789e-06 -6.0789e-06 1.15426e-07 0.060789 7.41625 14.6141 
921 0.0128 0.0128 0 -6.00932e-06 -6.00932e-06 -5.96566e-08 0.0600932 6.15823 12.9682 
961 0.0064 0.0064 0 -7.10603e-07 -7.10603e-07 -4.9039e-07 0.303036 84.594 132.259 
1001 0.5747 0.5747 0 0.000184662 0.000184662 9.18979e-07 3.65993 1259.96 1608.33 
1041 0.6459 0.6459 0 0.000188641 0.000188641 8.27116e-07 4.08488 1319.38 1726.26 
1081 0.6863 0.6863 0 0.000194746 0.000194746 -7.05467e-06 4.3707 1402.04 1837.63 
1121 0.7197 0.7197 0 0.000188246 0.000188246 8.95738e-07 4.56704 1406.85 1867.38 
1161 0.7346 0.7346 0 0.00019922 0.00019922 1.469e-06 4.63974 1469.35 1987.43 
1201 0.7727 0.7727 0 0.000213607 0.000213607 -3.31948e-06 4.83385 1562.19 2139.01 
1241 0.7848 0.7848 0 0.000216392 0.000216392 -2.6254e-06 4.90018 1571.57 2260.09 
2 0.1048 0.1048 0 4.33437e-05 4.33437e-05 -1.23152e-06 6.73207 2321.29 3339.94 
42 6.3053 6.3053 0 0.00414845 0.00414845 -8.82655e-06 41.4845 8359.92 11821.9 
82 6.9317 6.9317 0 0.00439436 0.00439436 -3.46118e-06 43.9436 7609.34 10859.7 
122 7.0637 7.0637 0 0.00443666 0.00443666 -1.79745e-05 44.3666 7222.57 10398.8 
162 7.1685 7.1685 0 0.00447746 0.00447746 2.62233e-06 44.7746 7055.36 10128.5 
202 7.1567 7.1567 0 0.00448312 0.00448312 6.78132e-06 44.8312 7409.42 10617.7 
242 6.9105 6.9105 0 0.0043596 0.0043596 -3.25754e-06 43.596 7385.52 10598.7 
282 6.5219 6.5219 0 0.00423434 0.00423434 -2.79023e-06 42.3434 8094.26 11556.5 
322 0.3461 0.3461 0 0.0002608 0.0002608 -7.64275e-07 25.7401 8334.57 11347.4 
362 0.7764 0.7764 0 0.00021327 0.00021327 8.15915e-07 4.78041 1567.51 2218.35 
402 0.7787 0.7787 0 0.000216172 0.000216172 3.69037e-06 4.91109 1592.73 2181.97 
442 0.7426 0.7426 0 0.000208795 0.000208795 -3.52858e-06 4.69811 1524.7 2033.07 
482 0.7156 0.7156 0 0.000191578 0.000191578 -3.9622e-06 4.53535 1414.78 1916.02 
522 0.6843 0.6843 0 0.000183434 0.000183434 -5.72621e-07 4.35009 1355.76 1802.38 
562 0.6351 0.6351 0 0.000183268 0.000183268 -3.80274e-06 4.05433 1323 1715.84 
602 0.5791 0.5791 0 0.0001804 0.0001804 2.21747e-06 3.69419 1248.6 1637.13 
642 0.0088 0.0088 0 -1.36718e-07 -1.36718e-07 -5.51983e-07 0.4338 141.982 222.468 
682 0.0135 0.0135 0 -6.23096e-06 -6.23096e-06 2.13984e-07 0.0623096 8.21028 20.2898 
722 0.0115 0.0115 0 -5.91e-06 -5.91e-06 6.22036e-08 0.0591 8.24914 16.7035 
762 0.0152 0.0152 0 -8.17004e-06 -8.17004e-06 -3.11734e-07 0.0817004 11.0727 23.0162 
802 0.0135 0.0135 0 -7.28066e-06 -7.28066e-06 -7.82547e-08 0.0728066 9.73861 17.8312 
842 0.0133 0.0133 0 -6.63656e-06 -6.63656e-06 -4.28418e-09 0.0663656 7.29861 14.6073 
882 0.0121 0.0121 0 -5.93982e-06 -5.93982e-06 4.19836e-07 0.0593982 7.11545 17.0093 
922 0.0127 0.0127 0 -6.42687e-06 -6.42687e-06 5.81979e-07 0.0642687 7.1322 11.2372 
962 0.0083 0.0083 0 -2.51799e-07 -2.51799e-07 7.13494e-09 0.402488 142.98 192.614 
1002 0.5985 0.5985 0 0.00019107 0.00019107 -6.26253e-06 3.79169 1285.07 1656.35 
1042 0.6475 0.6475 0 0.000182641 0.000182641 4.13266e-06 4.14117 1294.86 1710.68 
1082 0.6902 0.6902 0 0.000189829 0.000189829 2.15379e-06 4.38061 1343.3 1774.19 
1122 0.7147 0.7147 0 0.000201152 0.000201152 -1.35744e-06 4.5432 1447.52 1946.2 
1162 0.7376 0.7376 0 0.000197807 0.000197807 -7.10783e-07 4.65656 1448.58 1983.88 
1202 0.7639 0.7639 0 0.000206702 0.000206702 7.49077e-07 4.78301 1544.03 2103.09 
1242 0.7795 0.7795 0 0.000212291 0.000212291 -6.53655e-07 4.78522 1554.37 2198.32 
3 0.1277 0.1277 0 5.88789e-05 5.88789e-05 3.8232e-07 8.31221 2570.44 3872.76 
43 6.3104 6.3104 0 0.00413459 0.00413459 2.9534e-07 41.3459 8314.98 11726.2 
83 6.9184 6.9184 0 0.0043711 0.0043711 -4.25988e-06 43.711 7523.7 10827.6 
123 7.0861 7.0861 0 0.00445396 0.00445396 -1.83825e-06 44.5396 7205.6 10402.6 
163 7.1819 7.1819 0 0.00450523 0.00450523 2.76425e-07 45.0523 7125.49 10309.1 
203 7.1206 7.1206 0 0.00446109 0.00446109 -6.55196e-07 44.6109 7149.02 10299.1 
243 6.9626 6.9626 0 0.00440318 0.00440318 -4.70488e-06 44.0318 7459.45 10719.6 
283 6.4588 6.4588 0 0.00420084 0.00420084 -1.00038e-05 42.0084 8124.55 11504.2 
323 0.3009 0.3009 0 0.000222537 0.000222537 -7.85284e-07 22.1955 7180.67 9838.79 
363 0.7866 0.7866 0 0.000212084 0.000212084 5.52191e-06 4.88584 1573.48 2238.88 
403 0.7555 0.7555 0 0.000205933 0.000205933 2.95237e-07 4.78913 1492.17 2074.35 
443 0.7423 0.7423 0 0.000209016 0.000209016 8.73172e-07 4.71712 1534.32 2068.21 
483 0.7003 0.7003 0 0.000193817 0.000193817 -2.21693e-06 4.40458 1397.52 1869.66 
523 0.6753 0.6753 0 0.000190041 0.000190041 -1.69707e-06 4.24443 1344.56 1767.99 
563 0.6444 0.6444 0 0.000187565 0.000187565 -1.61321e-06 4.09356 1323.47 1736.5 
603 0.5804 0.5804 0 0.000182894 0.000182894 5.13874e-06 3.74012 1215.81 1585.06 
643 0.0078 0.0078 0 -5.82844e-07 -5.82844e-07 -4.11978e-08 0.399509 150.418 195.465 
683 0.0123 0.0123 0 -5.81321e-06 -5.81321e-06 4.63141e-07 0.0581321 6.65009 13.4717 
723 0.0138 0.0138 0 -6.72764e-06 -6.72764e-06 -2.90693e-09 0.0672764 12.179 20.1534 
763 0.0127 0.0127 0 -6.52326e-06 -6.52326e-06 -4.98887e-07 0.0652326 5.58612 12.8509 
803 0.0133 0.0133 0 -7.10582e-06 -7.10582e-06 -3.13979e-07 0.0710582 10.5517 15.4667 
843 0.0108 0.0108 0 -5.40022e-06 -5.40022e-06 -1.50816e-07 0.0540022 3.75975 10.8472 
883 0.0143 0.0143 0 -7.12216e-06 -7.12216e-06 -5.5524e-08 0.0712216 7.73857 19.6646 
923 0.0129 0.0129 0 -6.26587e-06 -6.26587e-06 -1.12295e-07 0.0626587 4.74553 10.8555 
963 0.0125 0.0125 0 -3.82914e-07 -3.82914e-07 -3.6408e-07 0.606254 184.239 250.477 
1003 0.5682 0.5682 0 0.0001765 0.0001765 1.26428e-07 3.61387 1204.83 1558.96 
1043 0.6332 0.6332 0 0.000178563 0.000178563 -3.0456e-06 4.00072 1280.69 1697.94 
1083 0.6692 0.6692 0 0.000189779 0.000189779 4.92459e-06 4.23783 1334.39 1759.18 
1123 0.7084 0.7084 0 0.000196769 0.000196769 -3.45178e-06 4.4862 1436.82 1933.24 
1163 0.7417 0.7417 0 0.000200333 0.000200333 -1.22717e-09 4.71972 1466.48 1989.84 
1203 0.7688 0.7688 0 0.000212926 0.000212926 -2.21058e-07 4.84761 1580.34 2155.16 
1243 0.7796 0.7796 0 0.000214071 0.000214071 -6.22565e-06 4.82508 1545.64 2199.35 
4 0.1455 0.1455 0 7.40955e-05 7.40955e-05 -1.23475e-06 9.87066 3168.17 4554.34 
44 6.3589 6.3589 0 0.00417472 0.00417472 1.24711e-05 41.7472 8286.07 11744.9 
84 6.8841 6.8841 0 0.00437454 0.00437454 4.72549e-06 43.7454 7478.84 10663.4 
124 7.1242 7.1242 0 0.00446278 0.00446278 -2.31762e-07 44.6278 7165.32 10258.4 
164 7.1655 7.1655 0 0.00447424 0.00447424 5.20237e-06 44.7424 7180.94 10301.9 
204 7.1466 7.1466 0 0.00447655 0.00447655 1.12089e-05 44.7655 7230.37 10469.8 
244 6.8968 6.8968 0 0.00437934 0.00437934 -2.19328e-07 43.7934 7547.56 10760.4 
284 6.4762 6.4762 0 0.00420873 0.00420873 -2.21225e-06 42.0873 8081.44 11461.1 
324 0.2797 0.2797 0 0.000200425 0.000200425 1.29558e-06 20.2707 6729.77 9432.16 
364 0.772 0.772 0 0.000209603 0.000209603 1.60542e-06 4.76895 1526.56 2181.28 
404 0.7823 0.7823 0 0.000212995 0.000212995 -3.23214e-06 4.93092 1584.61 2218.67 
444 0.7221 0.7221 0 0.000198993 0.000198993 -2.86498e-06 4.61462 1455.42 1971.57 
484 0.7124 0.7124 0 0.00019391 0.00019391 2.0161e-06 4.55664 1428.73 1880.07 
524 0.675 0.675 0 0.000185551 0.000185551 3.1828e-06 4.29998 1308.18 1726.83 
564 0.6263 0.6263 0 0.000177859 0.000177859 -1.54712e-06 3.99159 1278.03 1653.72 
604 0.5631 0.5631 0 0.000180459 0.000180459 -2.92585e-06 3.57353 1213.05 1562.4 
644 0.0067 0.0067 0 -9.82217e-07 -9.82217e-07 -7.41856e-07 0.33476 67.0883 100.738 
684 0.0143 0.0143 0 -7.21773e-06 -7.21773e-06 1.16905e-07 0.0721773 10.8479 21.2543 
724 0.0127 0.0127 0 -6.57695e-06 -6.57695e-06 2.21584e-07 0.0657695 6.09744 11.5298 
764 0.0137 0.0137 0 -7.06757e-06 -7.06757e-06 -3.6512e-07 0.0706757 11.2247 17.5748 
804 0.0142 0.0142 0 -7.29266e-06 -7.29266e-06 2.76909e-07 0.0729266 12.1587 20.1755 
844 0.0129 0.0129 0 -6.77497e-06 -6.77497e-06 -2.55151e-07 0.0677497 9.85887 20.7845 
884 0.0119 0.0119 0 -5.86802e-06 -5.86802e-06 -3.43402e-08 0.0586802 9.19919 16.3569 
924 0.0109 0.0109 0 -5.36444e-06 -5.36444e-06 6.83719e-08 0.0536444 6.43976 14.5549 
964 0.0166 0.0166 0 7.95419e-07 7.95419e-07 8.37917e-07 0.881468 310.142 397.697 
1004 0.5864 0.5864 0 0.000180815 0.000180815 1.69487e-06 3.70387 1220.23 1578.56 
1044 0.6381 0.6381 0 0.00018432 0.00018432 -4.68492e-06 4.05616 1306.93 1716.91 
1084 0.6836 0.6836 0 0.000183998 0.000183998 -6.12948e-06 4.34967 1333.54 1759.14 
1124 0.7123 0.7123 0 0.000203377 0.000203377 4.53985e-06 4.51223 1458.72 1942.62 
1164 0.7335 0.7335 0 0.000200805 0.000200805 -2.0318e-06 4.61103 1476.56 1997.8 
1204 0.7681 0.7681 0 0.00020785 0.00020785 -3.30283e-06 4.85142 1516.01 2102.88 
1244 0.7745 0.7745 0 0.00021563 0.00021563 4.82108e-06 4.82266 1585.29 2249.36 
5 0.1711 0.1711 0 9.77819e-05 9.77819e-05 1.29315e-07 11.548 3949.64 5535.77 
45 6.379 6.379 0 0.00418204 0.00418204 6.6981e-06 41.8204 8315.16 11769.8 
85 6.9127 6.9127 0 0.00437982 0.00437982 -1.4806e-05 43.7982 7503.17 10774 
125 7.1365 7.1365 0 0.00447695 0.00447695 -1.16846e-06 44.7695 7274.2 10456.7 
165 7.1949 7.1949 0 0.004499 0.004499 1.34929e-05 44.99 7125.6 10226.6 
205 7.1161 7.1161 0 0.00446365 0.00446365 -8.23306e-06 44.6365 7164.57 10372.6 
245 6.9235 6.9235 0 0.00438459 0.00438459 1.02913e-05 43.8459 7478.2 10781.9 
285 6.4128 6.4128 0 0.00419468 0.00419468 -1.02154e-05 41.9468 8068.24 11558.6 
325 0.2433 0.2433 0 0.000169821 0.000169821 4.06226e-07 17.3631 6166.2 8473.47 
365 0.7823 0.7823 0 0.000211926 0.000211926 1.11458e-06 4.86332 1526.38 2179.39 
405 0.7768 0.7768 0 0.000218998 0.000218998 2.2282e-06 4.89506 1637.42 2227.72 
445 0.7409 0.7409 0 0.000204237 0.000204237 3.11064e-06 4.70255 1463.66 1980.25 
485 0.7096 0.7096 0 0.000188111 0.000188111 -5.62717e-06 4.51926 1379.77 1850.86 
525 0.6787 0.6787 0 0.000185942 0.000185942 1.17336e-06 4.29882 1343.54 1810.63 
565 0.6311 0.6311 0 0.000181781 0.000181781 3.81572e-07 4.03288 1301.12 1690.83 
605 0.575 0.575 0 0.000181621 0.000181621 1.89534e-06 3.66295 1246.74 1580.63 
645 0.0051 0.0051 0 -9.08513e-07 -9.08513e-07 -1.80062e-07 0.211844 60.8844 103.151 
685 0.0117 0.0117 0 -5.88166e-06 -5.88166e-06 -3.56876e-07 0.0588166 6.22537 13.5448 
725 0.0131 0.0131 0 -6.47003e-06 -6.47003e-06 3.56004e-07 0.0647003 7.30481 13.8552 
765 0.0129 0.0129 0 -6.76985e-06 -6.76985e-06 -2.37346e-07 0.0676985 5.95845 16.5012 
805 0.0149 0.0149 0 -7.86854e-06 -7.86854e-06 1.15059e-06 0.0786854 10.0308 17.3932 
845 0.0111 0.0111 0 -5.62781e-06 -5.62781e-06 3.40008e-07 0.0562781 7.68486 15.8402 
885 0.0123 0.0123 0 -6.28418e-06 -6.28418e-06 7.40019e-09 0.0628418 9.23761 19.7549 
925 0.0105 0.0105 0 -5.00204e-06 -5.00204e-06 3.40684e-07 0.0500204 4.7924 10.7057 
965 0.0197 0.0197 0 1.99741e-06 1.99741e-06 -3.32096e-07 1.1301 336.069 463.199 
1005 0.5831 0.5831 0 0.000186324 0.000186324 -2.26131e-06 3.69818 1239 1607.75 
1045 0.6449 0.6449 0 0.000182596 0.000182596 -1.21291e-06 4.13789 1283.39 1691.23 
1085 0.6907 0.6907 0 0.000190615 0.000190615 -5.74711e-06 4.38735 1353.63 1810.47 
1125 0.7122 0.7122 0 0.00019439 0.00019439 -4.12977e-06 4.5367 1408.18 1892.22 
1165 0.7404 0.7404 0 0.000202908 0.000202908 -1.04539e-06 4.70815 1515.09 2072.23 
1205 0.7709 0.7709 0 0.00020638 0.00020638 2.61359e-06 4.78458 1533.37 2135.06 
1245 0.7931 0.7931 0 0.000216679 0.000216679 -4.53968e-06 4.90387 1576.29 2243.61 
6 0.1894 0.1894 0 0.000116758 0.000116758 -4.72684e-07 13.1811 4314.7 6138.16 
46 6.3726 6.3726 0 0.0041636 0.0041636 -5.41168e-06 41.636 8136.08 11512.4 
86 6.9103 6.9103 0 0.004362 0.004362 7.69767e-06 43.62 7510.8 10750.5 
126 7.1305 7.1305 0 0.00445014 0.00445014 -7.85495e-07 44.5014 7213.01 10340.5 
166 7.1846 7.1846 0 0.00448086 0.00448086 -7.03776e-06 44.8086 7076.93 10185.7 
206 7.105 7.105 0 0.00446229 0.00446229 -2.61511e-06 44.6229 7255.62 10419.6 
246 6.9429 6.9429 0 0.00439281 0.00439281 -1.12259e-06 43.9281 7545.77 10846.3 
286 6.4292 6.4292 0 0.00418373 0.00418373 -1.08022e-05 41.8373 8122.06 11560.5 
326 0.2196 0.2196 0 0.000142921 0.000142921 -1.55691e-06 15.3186 5046.17 6962.67 
366 0.7885 0.7885 0 0.000214781 0.000214781 -9.9863e-07 4.86351 1560.53 2202.97 
406 0.7547 0.7547 0 0.000209002 0.000209002 1.32446e-06 4.71272 1516.88 2081.64 
446 0.7385 0.7385 0 0.000201672 0.000201672 -1.79392e-06 4.69079 1486.38 1995.9 
486 0.7096 0.7096 0 0.000193537 0.000193537 9.94636e-07 4.50201 1412.71 1886.62 
526 0.6708 0.6708 0 0.000185187 0.000185187 2.62217e-06 4.28563 1342.64 1762.59 
566 0.6276 0.6276 0 0.000178057 0.000178057 -2.19659e-07 4.01147 1268.65 1668.63 
606 0.5812 0.5812 0 0.000182759 0.000182759 1.17845e-06 3.71369 1244.63 1594.24 
646 0.0036 0.0036 0 -1.03237e-06 -1.03237e-06 1.16326e-07 0.188476 40.8057 52.2188 
686 0.012 0.012 0 -6.06812e-06 -6.06812e-06 4.19057e-07 0.0606812 4.89093 14.3705 
726 0.0137 0.0137 0 -6.9438e-06 -6.9438e-06 2.53213e-09 0.069438 7.88617 15.2245 
766 0.0115 0.0115 0 -5.4522e-06 -5.4522e-06 -2.60958e-07 0.054522 5.72526 10.4338 
806 0.0141 0.0141 0 -7.39153e-06 -7.39153e-06 -2.40494e-08 0.0739153 9.24111 18.7159 
846 0.0122 0.0122 0 -6.37414e-06 -6.37414e-06 7.0782e-08 0.0637414 8.94057 19.2111 
886 0.0142 0.0142 0 -7.19573e-06 -7.19573e-06 -4.82444e-07 0.0719573 8.64126 17.2961 
926 0.0136 0.0136 0 -6.47474e-06 -6.47474e-06 -2.26353e-07 0.0647474 9.14035 16.4086 
966 0.0196 0.0196 0 3.40709e-06 3.40709e-06 -2.3998e-07 1.10336 453.735 588.346 
1006 0.5916 0.5916 0 0.000181604 0.000181604 2.31815e-06 3.769 1251.11 1627.65 
1046 0.6335 0.6335 0 0.000183634 0.000183634 -1.27558e-06 4.04107 1293.7 1723.24 
1086 0.6818 0.6818 0 0.000188554 0.000188554 -6.14354e-07 4.34567 1389.01 1843.87 
1126 0.7191 0.7191 0 0.000194683 0.000194683 -3.97333e-07 4.60282 1468.66 1962.01 
1166 0.7463 0.7463 0 0.000205361 0.000205361 -7.6674e-07 4.72941 1485.66 2016.04 
1206 0.766 0.766 0 0.000201758 0.000201758 5.61373e-07 4.8342 1536.96 2103.19 
1246 0.7846 0.7846 0 0.000224765 0.000224765 1.7908e-06 4.88898 1652.19 2321.82 
7 0.2188 0.2188 0 0.00014273 0.00014273 -2.9832e-06 15.4429 5199.07 7296.89 
47 6.448 6.448 0 0.00419867 0.00419867 -6.29318e-06 41.9867 8282.1 11714.9 
87 6.9148 6.9148 0 0.00438373 0.00438373 2.79139e-06 43.8373 7391.1 10675.1 
127 7.1141 7.1141 0 0.00444703 0.00444703 -8.38635e-06 44.4703 7075.63 10232.1 
167 7.1645 7.1645 0 0.00447427 0.00447427 3.92798e-06 44.7427 7098.61 10310.1 
207 7.1028 7.1028 0 0.00445153 0.00445153 8.25194e-06 44.5153 7219.78 10412.5 
247 6.93 6.93 0 0.00439818 0.00439818 -4.00043e-06 43.9818 7488.24 10786.1 
287 6.3775 6.3775 0 0.00415276 0.00415276 9.67263e-06 41.5276 8118.46 11553.5 
327 0.1969 0.1969 0 0.000125585 0.000125585 4.454e-07 13.7205 4698.48 6628.14 
367 0.7771 0.7771 0 0.000215326 0.000215326 -3.2198e-06 4.83261 1556.01 2220.55 
407 0.7755 0.7755 0 0.000217497 0.000217497 -1.78818e-06 4.90583 1576.53 2157.6 
447 0.7432 0.7432 0 0.000200566 0.000200566 -5.30083e-06 4.74306 1472.29 1998.96 
487 0.7085 0.7085 0 0.000192945 0.000192945 1.54073e-06 4.5204 1422.61 1911.45 
527 0.6829 0.6829 0 0.000189514 0.000189514 2.58542e-06 4.32284 1376.28 1797.95 
567 0.6195 0.6195 0 0.000189466 0.000189466 -2.08343e-06 3.94255 1326.03 1712.2 
607 0.5723 0.5723 0 0.000186796 0.000186796 5.82805e-07 3.64584 1264.11 1640.95 
647 0.0023 0.0023 0 -5.61754e-07 -5.61754e-07 1.03764e-07 0.0967326 16.4679 24.5779 
687 0.012 0.012 0 -6.20146e-06 -6.20146e-06 8.23892e-07 0.0620146 9.2717 16.7143 
727 0.0124 0.0124 0 -6.02774e-06 -6.02774e-06 -6.01377e-07 0.0602774 9.48761 18.9475 
767 0.0122 0.0122 0 -6.20807e-06 -6.20807e-06 -3.68205e-07 0.0620807 8.70325 15.9031 
807 0.0138 0.0138 0 -6.66328e-06 -6.66328e-06 2.85776e-07 0.0666328 5.09381 12.6321 
847 0.0136 0.0136 0 -6.83407e-06 -6.83407e-06 9.34218e-08 0.0683407 7.84442 16.5986 
887 0.0126 0.0126 0 -6.46012e-06 -6.46012e-06 9.6753e-08 0.0646012 7.89068 15.1973 
927 0.0113 0.0113 0 -5.5629e-06 -5.5629e-06 3.39969e-07 0.055629 5.66559 14.0162 
967 0.0261 0.0261 0 6.56097e-06 6.56097e-06 4.74376e-07 1.56497 627.287 771.215 
1007 0.5828 0.5828 0 0.000175231 0.000175231 -3.69157e-06 3.7094 1177.77 1554.15 
1047 0.6445 0.6445 0 0.000186276 0.000186276 -4.31239e-07 4.10643 1324.35 1714.93 
1087 0.681 0.681 0 0.000185592 0.000185592 3.37681e-06 4.32845 1360.41 1796.73 
1127 0.7157 0.7157 0 0.000191826 0.000191826 4.81611e-06 4.52037 1429.4 1889.53 
1167 0.7364 0.7364 0 0.000200346 0.000200346 -2.67054e-06 4.61664 1449.13 1989.02 
1207 0.768 0.768 0 0.000211698 0.000211698 3.63057e-06 4.81636 1564 2150.93 
1247 0.7778 0.7778 0 0.000212248 0.000212248 2.92648e-06 4.81344 1555.46 2212.1 
8 0.2437 0.2437 0 0.000163287 0.000163287 2.10545e-07 17.0548 5747.35 8008.81 
48 6.3975 6.3975 0 0.00417853 0.00417853 -1.19409e-05 41.7853 8216.6 11576.1 
88 6.9253 6.9253 0 0.00438816 0.00438816 -7.02819e-06 43.8816 7574.26 10793.5 
128 7.1287 7.1287 0 0.00447068 0.00447068 6.07695e-06 44.7068 7159.63 10285.2 
168 7.1928 7.1928 0 0.00449364 0.00449364 -7.96059e-06 44.9364 7246.35 10373.3 
208 7.1347 7.1347 0 0.00447195 0.00447195 1.34364e-06 44.7195 7245.43 10441.5 
248 6.8765 6.8765 0 0.00437201 0.00437201 7.90762e-06 43.7201 7466.61 10709 
288 6.3511 6.3511 0 0.00415117 0.00415117 2.97449e-06 41.5117 8338.83 11803.4 
328 0.1735 0.1735 0 0.000100701 0.000100701 -2.62279e-06 11.8186 3954.47 5567 
368 0.7832 0.7832 0 0.000214829 0.000214829 -3.11771e-06 4.89341 1585.92 2237.95 
408 0.7714 0.7714 0 0.000208521 0.000208521 -2.31266e-06 4.86161 1540.21 2112.57 
448 0.7486 0.7486 0 0.000203572 0.000203572 -2.25525e-06 4.78014 1487.52 2010.57 
488 0.7001 0.7001 0 0.000195739 0.000195739 1.56613e-07 4.44245 1412.54 1883.27 
528 0.673 0.673 0 0.000188929 0.000188929 -1.87521e-06 4.25401 1317.37 1748.56 
568 0.6332 0.6332 0 0.000182178 0.000182178 6.67296e-06 4.0413 1289.97 1681.14 
608 0.5667 0.5667 0 0.000190185 0.000190185 1.7053e-06 3.63712 1279.54 1633.76 
648 0.0026 0.0026 0 -9.61041e-07 -9.61041e-07 -3.29962e-08 0.117789 20.1993 33.4422 
688 0.0128 0.0128 0 -6.17007e-06 -6.17007e-06 -7.73997e-07 0.0617007 5.29506 14.3238 
728 0.0137 0.0137 0 -6.67694e-06 -6.67694e-06 4.97583e-07 0.0667694 4.6649 11.3506 
768 0.0131 0.0131 0 -6.83851e-06 -6.83851e-06 -2.56646e-07 0.0683851 7.35548 17.8871 
808 0.0143 0.0143 0 -7.51764e-06 -7.51764e-06 -6.59822e-07 0.0751764 9.33275 18.6081 
848 0.0139 0.0139 0 -6.73062e-06 -6.73062e-06 6.00202e-07 0.0673062 9.53802 16.0376 
888 0.0128 0.0128 0 -6.39058e-06 -6.39058e-06 5.42572e-07 0.0639058 8.99517 18.0217 
928 0.0132 0.0132 0 -5.84368e-06 -5.84368e-06 -4.93362e-07 0.0584368 6.34394 12.4722 
968 0.0369 0.0369 0 1.07506e-05 1.07506e-05 4.88771e-07 2.23901 821.396 1104.11 
1008 0.6107 0.6107 0 0.000186986 0.000186986 3.1118e-06 3.88632 1281.88 1668.79 
1048 0.6447 0.6447 0 0.000183346 0.000183346 3.29598e-06 4.06677 1299.19 1729.77 
1088 0.6886 0.6886 0 0.000187535 0.000187535 2.72006e-06 4.36401 1345.04 1782.66 
1128 0.7088 0.7088 0 0.000195957 0.000195957 4.85391e-06 4.50299 1444.19 1915.13 
1168 0.7438 0.7438 0 0.000203942 0.000203942 2.96228e-06 4.73566 1500.84 2023.22 
1208 0.7645 0.7645 0 0.000215067 0.000215067 -1.55747e-07 4.84371 1572.56 2175.1 
1248 0.7602 0.7602 0 0.000210345 0.000210345 2.32387e-06 4.70138 1521.68 2168.41 
9 0.2855 0.2855 0 0.00020258 0.00020258 2.2723e-06 20.6152 7011.5 9536.23 
49 6.4759 6.4759 0 0.00420492 0.00420492 8.35217e-06 42.0492 8101.02 11540.7 
89 6.968 6.968 0 0.00441644 0.00441644 9.51302e-06 44.1644 7513.11 10791.4 
129 7.1164 7.1164 0 0.00445692 0.00445692 -8.37371e-06 44.5692 7143.17 10299.6 
169 7.1466 7.1466 0 0.00445954 0.00445954 -1.58548e-06 44.5954 7008.4 10114.9 
209 7.0978 7.0978 0 0.00444427 0.00444427 -2.43507e-05 44.4427 7268.3 10437.8 
249 6.9289 6.9289 0 0.00438788 0.00438788 -3.93258e-06 43.8788 7539.94 10855.1 
289 6.3429 6.3429 0 0.00416158 0.00416158 -2.92535e-06 41.6158 8340.49 11847.2 
329 0.1513 0.1513 0 8.04688e-05 8.04688e-05 4.75325e-07 10.0655 3422.17 4833.92 
369 0.7833 0.7833 0 0.000215075 0.000215075 -3.01053e-06 4.92919 1590.69 2248 
409 0.7543 0.7543 0 0.000209114 0.000209114 -1.1866e-06 4.72028 1508.1 2067.6 
449 0.7357 0.7357 0 0.0002009 0.0002009 -6.26766e-07 4.65749 1470.77 1986.69 
489 0.7108 0.7108 0 0.000195862 0.000195862 -3.96424e-07 4.54578 1441.26 1912.65 
529 0.6832 0.6832 0 0.000188786 0.000188786 3.31843e-06 4.35887 1352.83 1798.64 
569 0.6405 0.6405 0 0.000182554 0.000182554 2.17615e-06 4.07126 1294.68 1696.92 
609 0.5641 0.5641 0 0.000180466 0.000180466 1.93272e-07 3.60487 1210.78 1548.21 
649 0.0025 0.0025 0 -9.81396e-07 -9.81396e-07 -3.121e-07 0.116251 22.8017 38.129 
689 0.0126 0.0126 0 -5.71112e-06 -5.71112e-06 1.50621e-07 0.0571112 10.5782 20.6544 
729 0.0131 0.0131 0 -6.2027e-06 -6.2027e-06 -2.10305e-07 0.062027 9.53094 17.0482 
769 0.014 0.014 0 -7.21661e-06 -7.21661e-06 1.51463e-07 0.0721661 11.1244 20.6722 
809 0.0129 0.0129 0 -6.37873e-06 -6.37873e-06 -1.18884e-06 0.0637873 10.0235 18.8909 
849 0.0148 0.0148 0 -7.14072e-06 -7.14072e-06 -1.34117e-07 0.0714072 9.96816 18.6313 
889 0.0112 0.0112 0 -5.6611e-06 -5.6611e-06 1.89732e-07 0.056611 8.38213 15.2754 
929 0.0129 0.0129 0 -6.44361e-06 -6.44361e-06 -2.5361e-07 0.0644361 7.10064 16.9359 
969 0.044 0.044 0 1.51996e-05 1.51996e-05 -7.49471e-07 2.86739 1083.04 1449.36 
1009 0.5944 0.5944 0 0.000181348 0.000181348 -2.0717e-07 3.80396 1251.37 1630.45 
1049 0.6579 0.6579 0 0.000181124 0.000181124 9.90939e-07 4.18602 1288.39 1701.21 
1089 0.697 0.697 0 0.000188751 0.000188751 -1.09752e-06 4.41231 1376.58 1832.72 
1129 0.7303 0.7303 0 0.000196398 0.000196398 1.46569e-06 4.60984 1426.43 1927.58 
1169 0.7519 0.7519 0 0.000202343 0.000202343 1.79618e-06 4.73179 1476.63 2027.38 
1209 0.7528 0.7528 0 0.00020545 0.00020545 -1.72317e-06 4.75126 1557.26 2141.01 
1249 0.7804 0.7804 0 0.000212575 0.000212575 -1.59325e-06 4.78499 1565.8 2234.41 
10 0.3144 0.3144 0 0.000229645 0.000229645 2.73809e-06 22.7783 7461.99 10177.1 
50 6.4304 6.4304 0 0.00419745 0.00419745 -2.27141e-06 41.9745 8147.68 11517.3 
90 6.9387 6.9387 0 0.00437792 0.00437792 -2.99413e-06 43.7792 7355.33 10535.3 
130 7.1239 7.1239 0 0.00446539 0.00446539 -2.87951e-06 44.6539 7180.01 10308.3 
170 7.1756 7.1756 0 0.00448807 0.00448807 -3.49978e-06 44.8807 7107.77 10208.1 
210 7.0908 7.0908 0 0.004442 0.004442 -4.67208e-06 44.42 7188.87 10336.2 
250 6.9298 6.9298 0 0.00439712 0.00439712 9.22916e-08 43.9712 7637.95 10902 
290 6.281 6.281 0 0.00411883 0.00411883 8.9365e-06 41.1883 8314.13 11787.6 
330 0.1314 0.1314 0 6.50743e-05 6.50743e-05 -7.64776e-07 8.75178 3017.67 4287.9 
370 0.7783 0.7783 0 0.000213342 0.000213342 5.97806e-06 4.82978 1559.98 2199.23 
410 0.7776 0.7776 0 0.000211806 0.000211806 6.57697e-06 4.91316 1591.71 2182.42 
450 0.7505 0.7505 0 0.000205915 0.000205915 4.75918e-06 4.76894 1494.82 2003.55 
490 0.7023 0.7023 0 0.000191789 0.000191789 -3.66996e-06 4.46507 1435.72 1918.72 
530 0.6837 0.6837 0 0.000193535 0.000193535 4.66923e-06 4.37023 1387.05 1829.45 
570 0.6271 0.6271 0 0.000182271 0.000182271 5.40955e-06 3.98705 1290.49 1699.49 
610 0.5639 0.5639 0 0.000185333 0.000185333 2.06866e-06 3.61066 1248.5 1598.92 
650 0.0015 0.0015 0 -5.56326e-07 -5.56326e-07 -1.81732e-08 0.0589181 1.36095 14.3099 
690 0.0123 0.0123 0 -6.48272e-06 -6.48272e-06 5.32136e-08 0.0648272 9.22845 18.1808 
730 0.012 0.012 0 -5.98258e-06 -5.98258e-06 3.20371e-08 0.0598258 6.80302 14.6056 
770 0.0105 0.0105 0 -5.02365e-06 -5.02365e-06 2.61415e-07 0.0502365 4.98981 12.3026 
810 0.012 0.012 0 -5.81493e-06 -5.81493e-06 2.8141e-07 0.0581493 7.899 18.237 
850 0.0135 0.0135 0 -6.74811e-06 -6.74811e-06 1.93471e-07 0.0674811 7.62938 16.0737 
890 0.0115 0.0115 0 -5.91962e-06 -5.91962e-06 1.70638e-07 0.0591962 4.9871 12.5627 
930 0.0131 0.0131 0 -6.0348e-06 -6.0348e-06 -2.48273e-07 0.060348 5.13995 11.6029 
970 0.1233 0.1233 0 4.56074e-05 4.56074e-05 -5.14171e-07 3.2398 1174.62 1495.69 
1010 0.5856 0.5856 0 0.000177947 0.000177947 3.16565e-07 3.73801 1213.72 1582.88 
1050 0.6619 0.6619 0 0.000184687 0.000184687 4.58853e-06 4.20799 1279.6 1705.89 
1090 0.6938 0.6938 0 0.000187764 0.000187764 4.1342e-06 4.42281 1390.73 1850.04 
1130 0.7317 0.7317 0 0.000193377 0.000193377 -8.16518e-08 4.65 1451.5 1929.69 
1170 0.7519 0.7519 0 0.00020328 0.00020328 8.56482e-08 4.77511 1499.16 2040.99 
1210 0.7666 0.7666 0 0.000202289 0.000202289 5.18428e-06 4.78344 1487.54 2059.3 
1250 0.7749 0.7749 0 0.000211091 0.000211091 1.46705e-06 4.73753 1559.13 2245.19 
11 0.3535 0.3535 0 0.000262395 0.000262395 -2.62605e-06 25.9543 8191.23 11339 
51 6.4829 6.4829 0 0.00422186 0.00422186 -1.44185e-06 42.2186 8149.87 11547 
91 6.9205 6.9205 0 0.00436925 0.00436925 -3.22066e-06 43.6925 7471.14 10723.6 
131 7.1119 7.1119 0 0.00446381 0.00446381 9.98182e-06 44.6381 7223.77 10347.9 
171 7.2206 7.2206 0 0.00451705 0.00451705 2.42843e-06 45.1705 7137.7 10335.1 
211 7.0952 7.0952 0 0.00444781 0.00444781 1.64835e-05 44.4781 7246.88 10431 
251 6.9314 6.9314 0 0.00439613 0.00439613 -9.3046e-06 43.9613 7673.42 10967.7 
291 6.2743 6.2743 0 0.0041217 0.0041217 9.53531e-07 41.217 8308.82 11713 
331 0.1114 0.1114 0 4.74663e-05 4.74663e-05 8.36357e-07 7.10905 2470.26 3632.44 
371 0.7743 0.7743 0 0.000211641 0.000211641 3.02495e-06 4.79096 1558.74 2196.37 
411 0.7557 0.7557 0 0.000206734 0.000206734 3.2481e-06 4.76201 1530.7 2074.28 
451 0.7362 0.7362 0 0.000200348 0.000200348 1.05586e-06 4.6446 1459.33 1973.33 
491 0.6979 0.6979 0 0.000190247 0.000190247 -1.80856e-06 4.43045 1372.03 1846.19 
531 0.6748 0.6748 0 0.00018151 0.00018151 -1.31595e-06 4.32306 1314.92 1731.17 
571 0.631 0.631 0 0.000189061 0.000189061 -1.89418e-06 3.99891 1305.05 1702.95 
611 0.5628 0.5628 0 0.000182664 0.000182664 2.07411e-06 3.58084 1188 1518.89 
651 0.0016 0.0016 0 -6.30792e-07 -6.30792e-07 3.36732e-07 0.0655972 14.2143 27.2181 
691 0.01 0.01 0 -4.63138e-06 -4.63138e-06 -3.77426e-07 0.0463138 5.4701 15.7748 
731 0.0134 0.0134 0 -7.01901e-06 -7.01901e-06 -4.75788e-08 0.0701901 7.9437 16.1151 
771 0.0139 0.0139 0 -7.39254e-06 -7.39254e-06 3.04932e-07 0.0739254 8.06192 16.5904 
811 0.0139 0.0139 0 -7.02586e-06 -7.02586e-06 1.88847e-07 0.0702586 14.2625 21.9456 
851 0.013 0.013 0 -6.60219e-06 -6.60219e-06 -4.90277e-08 0.0660219 9.39802 18.2541 
891 0.011 0.011 0 -5.44748e-06 -5.44748e-06 -3.91736e-07 0.0544748 7.23534 17.2052 
931 0.0138 0.0138 0 -6.21954e-06 -6.21954e-06 2.338e-07 0.0621954 10.9954 19.4136 
971 0.1217 0.1217 0 4.45722e-05 4.45722e-05 -7.45813e-07 3.11794 1174.58 1465.28 
1011 0.5903 0.5903 0 0.000178655 0.000178655 5.33669e-06 3.77316 1216.17 1588.78 
1051 0.6518 0.6518 0 0.000187674 0.000187674 8.78287e-07 4.19379 1343.77 1750.57 
1091 0.6879 0.6879 0 0.000189538 0.000189538 1.9975e-06 4.42301 1390.26 1816.11 
1131 0.7189 0.7189 0 0.000193299 0.000193299 -1.6163e-06 4.55448 1414.39 1908.69 
1171 0.7427 0.7427 0 0.000202724 0.000202724 2.4155e-06 4.73194 1492.11 2033.53 
1211 0.7683 0.7683 0 0.000217949 0.000217949 -6.78777e-07 4.82069 1564.45 2196.18 
1251 0.7703 0.7703 0 0.00020835 0.00020835 -6.36964e-06 4.72188 1528.33 2168.79 
12 0.3844 0.3844 0 0.000294857 0.000294857 -1.21944e-06 28.9328 9478.5 13042.7 
52 6.5404 6.5404 0 0.00424992 0.00424992 -9.67581e-06 42.4992 8094.12 11527.5 
92 6.9763 6.9763 0 0.00441591 0.00441591 6.30904e-06 44.1591 7499.66 10713.2 
132 7.1534 7.1534 0 0.00450148 0.00450148 1.10298e-06 45.0148 7271.58 10456.7 
172 7.1697 7.1697 0 0.00447817 0.00447817 -1.7475e-06 44.7817 7130.42 10250.9 
212 7.0836 7.0836 0 0.00444628 0.00444628 5.51529e-06 44.4628 7173.95 10332.8 
252 6.8349 6.8349 0 0.00434897 0.00434897 -1.00318e-05 43.4897 7471.93 10723.3 
292 6.2534 6.2534 0 0.00412532 0.00412532 -2.37305e-06 41.2532 8330.23 11754.1 
332 0.0988 0.0988 0 3.55018e-05 3.55018e-05 -1.12033e-06 6.10241 1943.53 2921.79 
372 0.7913 0.7913 0 0.00021342 0.00021342 -2.99057e-06 4.93779 1555.03 2180.94 
412 0.7592 0.7592 0 0.000205243 0.000205243 1.75549e-06 4.76779 1503.77 2056.18 
452 0.7443 0.7443 0 0.000202402 0.000202402 -3.69969e-06 4.72652 1496.68 1992.24 
492 0.7149 0.7149 0 0.000192945 0.000192945 -5.17454e-06 4.52143 1401.92 1879.8 
532 0.675 0.675 0 0.000181077 0.000181077 3.4617e-06 4.34044 1316.63 1752.99 
572 0.6403 0.6403 0 0.000183978 0.000183978 -2.93816e-06 4.06254 1301.16 1707.37 