ITEM: TIMESTEP
30000
ITEM: NUMBER OF SURFS
1272
ITEM: BOX BOUNDS oo rr pp
0 0.3
0 0.3
-0.5 0.5
ITEM: SURFS id f_4[1] f_4[2] f_4[3] f_4[4] f_4[5] f_4[6] f_4[7] f_4[8] f_4[9] 
1 0.1972 0.1972 0 3.53568e-05 5.57108e-05 1.52349e-06 6.14414 1896.43 2903.29 
81 13.7684 13.7684 0 0.00435192 -0.000173779 5.20893e-06 43.5192 7395.79 10634.4 
161 14.3728 14.3728 0 0.00447683 -4.74549e-06 -5.91287e-06 44.7683 6973.07 10064.2 
241 13.8212 13.8212 0 0.00435721 0.000155015 3.83144e-06 43.5721 7201.36 10416.8 
321 0.762 0.762 0 0.000291476 -2.09103e-05 2.82014e-07 28.683 8750.64 12215.5 
401 1.6006 1.6006 0 0.000211746 -0.000506215 2.35346e-06 5.06215 1590.52 2188.09 
481 1.4998 1.4998 0 0.000194448 -0.000474328 -3.45359e-06 4.74328 1444.09 1939.91 
561 1.358 1.358 0 0.00018399 -0.000430183 -2.01904e-06 4.30183 1277.8 1680.29 
641 0.028 0.028 0 4.78148e-07 -9.1754e-06 -1.26914e-07 0.776905 259.413 367.544 
721 0.0418 0.0418 0 -1.10936e-05 3.49842e-08 6.07065e-07 0.110936 11.4216 23.4438 
801 0.0492 0.0492 0 -1.29022e-05 4.78395e-07 4.53582e-07 0.129022 8.79679 24.098 
881 0.0442 0.0442 0 -1.13932e-05 -1.46613e-06 -3.5784e-07 0.113932 15.4447 31.5195 
961 0.014 0.014 0 -8.54102e-07 3.85945e-06 6.00355e-08 0.328597 83.2784 133.251 
1041 1.341 1.341 0 0.00018337 0.000425388 -2.41765e-07 4.25388 1291.68 1714.36 
1121 1.501 1.501 0 0.000196216 0.000471111 5.46914e-06 4.71111 1448.57 1929.16 
1201 1.5432 1.5432 0 0.000202722 0.000486578 -1.78236e-06 4.86578 1519.84 2115.02 
2 0.229 0.229 0 4.74644e-05 6.04844e-05 -5.6984e-07 7.15386 2394.59 3387.17 
82 13.7234 13.7234 0 0.0043468 -0.000170959 7.13205e-06 43.468 7533.4 10791.7 
162 14.3348 14.3348 0 0.00446206 3.72847e-06 -2.0348e-05 44.6206 7015.12 10084.2 
242 13.8758 13.8758 0 0.00437432 0.000161378 3.83069e-06 43.7432 7285.09 10447.4 
322 0.6966 0.6966 0 0.00026119 -3.76745e-05 8.37216e-07 25.7013 8266.63 11368.6 
402 1.5854 1.5854 0 0.000209177 -0.00049666 -6.65631e-07 4.9666 1570.07 2161.67 
482 1.4928 1.4928 0 0.000193062 -0.000471684 5.18807e-08 4.71684 1429.35 1933.59 
562 1.371 1.371 0 0.000190668 -0.000435335 1.14299e-06 4.35335 1308.6 1735.62 
642 0.0268 0.0268 0 -3.97107e-07 -8.65808e-06 9.41023e-08 0.732743 252.851 340.831 
722 0.0428 0.0428 0 -1.10094e-05 9.22983e-07 3.35256e-07 0.110094 12.5467 24.8842 
802 0.0462 0.0462 0 -1.18534e-05 7.03661e-07 3.6607e-07 0.118534 16.8639 28.0348 
882 0.0472 0.0472 0 -1.18771e-05 -8.59727e-07 -7.34063e-07 0.118771 16.1308 30.8161 
962 0.0176 0.0176 0 -9.41637e-07 4.86241e-06 -8.94432e-07 0.431564 82.432 117.866 
1042 1.3378 1.3378 0 0.000179512 0.000425079 -2.16201e-06 4.25079 1272.56 1672.51 
1122 1.4962 1.4962 0 0.000193029 0.0004766 5.63439e-07 4.766 1410.99 1888.48 
1202 1.5904 1.5904 0 0.000213633 0.000500528 -8.59997e-06 5.00528 1595.02 2192.63 
3 0.2552 0.2552 0 6.06879e-05 6.36626e-05 -1.13392e-06 8.19136 2897.32 4123.46 
83 13.7958 13.7958 0 0.00437106 -0.000172408 -3.53395e-06 43.7106 7387.18 10666.4 
163 14.4026 14.4026 0 0.00448968 -1.59612e-05 1.03691e-05 44.8968 7032.21 10182.7 
243 13.8696 13.8696 0 0.00437837 0.000155834 -1.0197e-06 43.7837 7344.82 10593.5 
323 0.6078 0.6078 0 0.000223098 -5.05922e-05 -1.52305e-06 22.1497 7481.66 10163.7 
403 1.562 1.562 0 0.000213501 -0.000490372 -2.13678e-06 4.90372 1550.66 2133.64 
483 1.4916 1.4916 0 0.000195192 -0.000470286 1.52903e-06 4.70286 1377.92 1862.23 
563 1.331 1.331 0 0.000181687 -0.00042321 1.15322e-07 4.2321 1284.36 1713.13 
643 0.0186 0.0186 0 -4.77427e-07 -5.31253e-06 7.67732e-08 0.433783 151.955 223.044 
723 0.0426 0.0426 0 -1.04229e-05 7.7567e-07 -3.38714e-07 0.104229 9.6465 22.6494 
803 0.045 0.045 0 -1.19203e-05 -3.76481e-07 -6.61304e-07 0.119203 17.1053 32.3178 
883 0.0408 0.0408 0 -1.04073e-05 -1.31598e-06 1.96638e-06 0.104073 14.1671 26.7853 
963 0.0228 0.0228 0 -4.35098e-07 6.57621e-06 -4.39469e-07 0.564654 153.764 242.185 
1043 1.3618 1.3618 0 0.000184272 0.000434384 2.8677e-07 4.34384 1305.57 1717.12 
1123 1.4738 1.4738 0 0.000191228 0.000465788 1.55916e-06 4.65788 1399.13 1891.6 
1203 1.5546 1.5546 0 0.00021118 0.000485403 5.37676e-06 4.85403 1546.99 2127.93 
4 0.3056 0.3056 0 7.93574e-05 7.32999e-05 9.23148e-07 10.2096 3219.82 4542.62 
84 13.7818 13.7818 0 0.0043527 -0.000169894 -5.47452e-06 43.527 7393.16 10638 
164 14.2816 14.2816 0 0.00445071 -4.6542e-06 -5.16655e-06 44.5071 7003.85 10130.8 
244 13.8088 13.8088 0 0.00435199 0.000167507 -1.1383e-06 43.5199 7148.74 10242.4 
324 0.5302 0.5302 0 0.000190042 -5.89257e-05 2.59973e-06 19.1312 6422.06 8908.64 
404 1.5982 1.5982 0 0.000211289 -0.000502277 1.6327e-06 5.02277 1559.88 2149.56 
484 1.4906 1.4906 0 0.000188511 -0.000477016 3.8732e-06 4.77016 1387.81 1863.43 
564 1.34 1.34 0 0.000186664 -0.000429433 -1.35706e-06 4.29433 1323.99 1736.3 
644 0.0164 0.0164 0 -1.03392e-06 -4.31389e-06 -3.58679e-07 0.373272 79.1157 130.694 
724 0.0436 0.0436 0 -1.05153e-05 7.8483e-07 4.28235e-07 0.105153 13.06 24.6607 
804 0.0434 0.0434 0 -1.14592e-05 -1.61619e-07 -6.60877e-07 0.114592 12.0157 22.301 
884 0.0472 0.0472 0 -1.15356e-05 -3.58347e-07 1.23209e-06 0.115356 13.2567 24.9181 
964 0.0348 0.0348 0 2.97791e-07 1.10567e-05 -5.62032e-07 0.950783 292.636 414.748 
1044 1.3396 1.3396 0 0.000182396 0.000425572 -3.01691e-06 4.25572 1284.6 1730.78 
1124 1.5016 1.5016 0 0.000197854 0.000474024 6.97016e-06 4.74024 1407.96 1900.04 
1204 1.5742 1.5742 0 0.000211563 0.000490338 9.2461e-08 4.90338 1540.97 2103.49 
5 0.3412 0.3412 0 9.75343e-05 7.24585e-05 8.20399e-07 11.4426 4062.67 5679.26 
85 13.7792 13.7792 0 0.00435284 -0.000169823 -3.31942e-06 43.5284 7351.2 10610.2 
165 14.394 14.394 0 0.00447466 -7.78623e-06 7.73835e-06 44.7466 7037.99 10118.6 
245 13.8582 13.8582 0 0.00436839 0.000172629 1.8865e-06 43.6839 7398.33 10613.6 
325 0.4996 0.4996 0 0.00017273 -6.79176e-05 5.04198e-07 17.6894 6025.92 8404.63 
405 1.5966 1.5966 0 0.000212121 -0.000505391 -6.94415e-07 5.05391 1536.92 2113.9 
485 1.4758 1.4758 0 0.000191271 -0.000470101 -4.31293e-06 4.70101 1402.1 1903.82 
565 1.3358 1.3358 0 0.000181901 -0.000420073 -3.86987e-07 4.20073 1287.34 1691.41 
645 0.015 0.015 0 -1.72468e-06 -3.29483e-06 1.5935e-08 0.341162 44.8261 83.9219 
725 0.0474 0.0474 0 -1.2058e-05 -3.61973e-07 -1.36555e-06 0.12058 23.1397 43.3129 
805 0.0532 0.0532 0 -1.35809e-05 9.86243e-07 -6.39626e-07 0.135809 18.4443 37.9638 
885 0.0454 0.0454 0 -1.1667e-05 -7.85362e-07 -1.28132e-07 0.11667 15.2647 34.2909 
965 0.0402 0.0402 0 1.75641e-06 1.28512e-05 -1.26371e-07 1.10728 334.26 445.123 
1045 1.3362 1.3362 0 0.000181771 0.000424987 1.21324e-06 4.24987 1278 1698.22 
1125 1.4714 1.4714 0 0.000189547 0.000462403 -2.58716e-06 4.62403 1381.29 1861.76 
1205 1.5478 1.5478 0 0.000202911 0.000482897 2.0235e-06 4.82897 1507.09 2109.09 
6 0.3896 0.3896 0 0.000118416 7.53368e-05 3.3857e-07 13.3541 4361.18 6360.27 
86 13.834 13.834 0 0.00436417 -0.000159142 -3.52637e-08 43.6417 7389.38 10593.6 
166 14.2916 14.2916 0 0.00445466 3.73054e-06 -5.89887e-07 44.5466 6908.85 10085.1 
246 13.8042 13.8042 0 0.00435591 0.000153298 -2.93956e-06 43.5591 7271.47 10437.8 
326 0.4436 0.4436 0 0.000144018 -7.55582e-05 1.82827e-06 15.5603 5214.73 7280.02 
406 1.5644 1.5644 0 0.000213837 -0.000487876 -5.70821e-06 4.87876 1522.57 2099.19 
486 1.491 1.491 0 0.00019082 -0.000472218 -6.57351e-07 4.72218 1413.51 1910.19 
566 1.3332 1.3332 0 0.000186726 -0.000422197 1.95245e-07 4.22197 1292.48 1725.41 
646 0.0088 0.0088 0 -1.30931e-06 -1.65249e-06 -1.59771e-07 0.201007 39.5843 55.1389 
726 0.0422 0.0422 0 -1.0657e-05 1.04132e-06 -1.30037e-07 0.10657 11.4278 24.7614 
806 0.051 0.051 0 -1.35128e-05 -2.90608e-07 -2.94222e-07 0.135128 12.7186 27.6272 
886 0.0408 0.0408 0 -1.01997e-05 -1.3252e-06 4.59613e-07 0.101997 13.2268 31.4801 
966 0.0488 0.0488 0 3.32381e-06 1.54299e-05 -1.35219e-06 1.3663 468.742 634.226 
1046 1.3682 1.3682 0 0.000188582 0.000433153 -2.62664e-06 4.33153 1317.69 1740.05 
1126 1.5072 1.5072 0 0.000198418 0.000475606 -2.95227e-06 4.75606 1468.46 1984.81 
1206 1.5828 1.5828 0 0.000204524 0.000496747 -4.05647e-06 4.96747 1534.43 2128.07 
7 0.43 0.43 0 0.000143288 6.99219e-05 -4.10803e-07 15.0848 5085.15 7241.44 
87 13.896 13.896 0 0.00437977 -0.000157139 -4.99345e-06 43.7977 7388.37 10569.9 
167 14.329 14.329 0 0.0044578 -1.57059e-06 -6.52426e-06 44.578 6947.45 10027.6 
247 13.7364 13.7364 0 0.00433706 0.000153424 -7.21046e-07 43.3706 7198.72 10392.2 
327 0.385 0.385 0 0.000119153 -7.28979e-05 -9.98221e-07 13.1993 4542.64 6206.7 
407 1.5696 1.5696 0 0.00021011 -0.00049404 -1.67414e-06 4.9404 1531.28 2109.82 
487 1.4632 1.4632 0 0.00018689 -0.000464162 3.77219e-06 4.64162 1390.94 1878.34 
567 1.3148 1.3148 0 0.000183155 -0.000415485 -1.38217e-07 4.15485 1297.06 1687.73 
647 0.008 0.008 0 -1.32886e-06 -1.4861e-06 1.59737e-08 0.187156 44.3608 61.8006 
727 0.0416 0.0416 0 -1.06602e-05 5.34517e-07 -2.53741e-07 0.106602 12.7325 24.5111 
807 0.048 0.048 0 -1.28029e-05 -6.04697e-07 -1.68489e-07 0.128029 13.4314 25.8128 
887 0.0424 0.0424 0 -1.05465e-05 -8.04096e-07 9.79914e-07 0.105465 11.7732 30.1419 
967 0.0616 0.0616 0 6.42248e-06 2.00648e-05 4.61199e-07 1.82431 625.963 809.934 
1047 1.3492 1.3492 0 0.000180345 0.000426682 8.29206e-07 4.26682 1284.79 1719.2 
1127 1.5064 1.5064 0 0.000196357 0.000477699 2.26025e-06 4.77699 1478.3 1972.47 
1207 1.595 1.595 0 0.000208118 0.00050015 4.14972e-06 5.0015 1522.14 2125.88 
8 0.5012 0.5012 0 0.000171338 7.39283e-05 4.08636e-07 17.9956 6033.47 8263.15 
88 13.8184 13.8184 0 0.00435765 -0.000170625 -1.7839e-06 43.5765 7158.22 10335.9 
168 14.3306 14.3306 0 0.00445991 9.12345e-07 9.9433e-07 44.5991 6929.39 10015 
248 13.8662 13.8662 0 0.00437398 0.000173791 1.90827e-06 43.7398 7472.93 10732.8 
328 0.3264 0.3264 0 9.32153e-05 -7.2283e-05 3.31942e-08 11.201 3790.71 5280.16 
408 1.5524 1.5524 0 0.000202003 -0.000487583 1.22225e-06 4.87583 1547.28 2125.24 
488 1.4352 1.4352 0 0.000183935 -0.000457617 1.4307e-06 4.57617 1382.24 1854.76 
568 1.323 1.323 0 0.000181719 -0.000422061 4.37546e-06 4.22061 1285.6 1680.72 
648 0.0052 0.0052 0 -1.07651e-06 -4.59684e-07 -3.92394e-07 0.119064 6.49511 38.4983 
728 0.0472 0.0472 0 -1.21252e-05 2.64322e-07 8.86995e-07 0.121252 14.1368 25.5769 
808 0.0522 0.0522 0 -1.33123e-05 1.90262e-07 -1.9158e-07 0.133123 21.2542 36.0522 
888 0.0454 0.0454 0 -1.11944e-05 -6.29986e-07 -3.17265e-07 0.111944 17.5396 31.0899 
968 0.0762 0.0762 0 1.11082e-05 2.47615e-05 -4.67369e-07 2.3298 846.86 1080.97 
1048 1.3686 1.3686 0 0.000187097 0.000435338 2.57888e-06 4.35338 1335.74 1761 
1128 1.507 1.507 0 0.000197972 0.000480079 7.9807e-07 4.80079 1446.64 1949.33 
1208 1.609 1.609 0 0.000213898 0.000502654 2.18738e-06 5.02654 1575.21 2197.12 
9 0.568 0.568 0 0.000201011 6.23193e-05 -8.01812e-07 20.2351 6551.29 9265.59 
89 13.8372 13.8372 0 0.00436003 -0.000157678 -1.50579e-05 43.6003 7325.26 10494.7 
169 14.3858 14.3858 0 0.00448236 4.00869e-06 -6.27768e-06 44.8236 7006.97 10111.6 
249 13.8148 13.8148 0 0.00436154 0.000165469 1.35724e-05 43.6154 7302.97 10576.8 
329 0.3002 0.3002 0 7.82734e-05 -6.98555e-05 -1.84145e-06 9.84506 3238.26 4616.62 
409 1.5778 1.5778 0 0.000212183 -0.000497593 9.41008e-07 4.97593 1544.74 2128.82 
489 1.4734 1.4734 0 0.000195717 -0.000466705 1.05799e-06 4.66705 1424.8 1922.01 
569 1.329 1.329 0 0.000186769 -0.000424393 -2.97393e-06 4.24393 1297.58 1709.5 
649 0.005 0.005 0 -1.16365e-06 -5.02775e-07 8.71086e-08 0.127471 7.85571 16.4873 
729 0.0454 0.0454 0 -1.14052e-05 5.84974e-07 1.30107e-07 0.114052 15.8846 31.2116 
809 0.0578 0.0578 0 -1.51412e-05 1.33509e-07 5.70131e-07 0.151412 16.055 33.9757 
889 0.0462 0.0462 0 -1.17811e-05 -4.84817e-07 -9.3186e-08 0.117811 18.5985 34.5372 
969 0.0954 0.0954 0 1.61786e-05 3.13411e-05 -1.60562e-09 3.10892 1088.14 1415.77 
1049 1.3562 1.3562 0 0.000180849 0.000430692 -4.02309e-07 4.30692 1289.71 1697.16 
1129 1.5246 1.5246 0 0.000199973 0.000481189 -2.05166e-06 4.81189 1469.05 1980.14 
1209 1.6364 1.6364 0 0.000214732 0.000511052 -6.43643e-07 5.11052 1577.57 2201.89 
10 0.6098 0.6098 0 0.000224601 5.06422e-05 1.32156e-06 22.2837 7439.6 10315.2 
90 13.8378 13.8378 0 0.00435609 -0.000157216 -4.21479e-06 43.5609 7228.99 10477.2 
170 14.3256 14.3256 0 0.00446736 3.06541e-06 -6.35043e-06 44.6736 6910.76 9965.99 
250 13.7678 13.7678 0 0.00435936 0.000182622 -1.06082e-07 43.5936 7446.42 10682.7 
330 0.258 0.258 0 6.25518e-05 -6.43506e-05 3.36081e-07 8.32137 2740.69 4008.51 
410 1.5858 1.5858 0 0.000209313 -0.000503724 1.28086e-06 5.03724 1596.39 2196.76 
490 1.4664 1.4664 0 0.0001899 -0.000466038 -1.13157e-06 4.66038 1377.55 1851.14 
570 1.3346 1.3346 0 0.000184689 -0.000423031 5.05747e-07 4.23031 1292.16 1673.84 
650 0.0048 0.0048 0 -1.02777e-06 -3.35249e-07 -1.21305e-07 0.108609 21.2088 30.4587 
730 0.0434 0.0434 0 -1.10012e-05 1.11055e-06 9.54852e-08 0.110012 16.6228 27.334 
810 0.0536 0.0536 0 -1.44261e-05 7.32172e-07 1.16036e-09 0.144261 17.5736 34.6086 
890 0.0478 0.0478 0 -1.2178e-05 1.22738e-08 7.09837e-07 0.12178 15.504 35.0181 
970 0.2548 0.2548 0 4.53339e-05 8.2931e-05 -2.15849e-07 3.31724 1189.61 1486.55 
1050 1.3864 1.3864 0 0.000186727 0.00044217 6.83064e-06 4.4217 1357.55 1776.99 
1130 1.4766 1.4766 0 0.000182946 0.000467366 -2.0968e-06 4.67366 1364.77 1831.19 
1210 1.5824 1.5824 0 0.000214328 0.000496374 -3.63804e-06 4.96374 1537.25 2126 
11 0.6704 0.6704 0 0.00025378 3.97137e-05 -2.23753e-06 25.1076 7891.14 10706.1 
91 13.9258 13.9258 0 0.00439133 -0.000158613 1.52333e-05 43.9133 7354.72 10524.8 
171 14.219 14.219 0 0.00442727 7.41991e-06 -2.51038e-06 44.2727 6890.07 9968.85 
251 13.7292 13.7292 0 0.00433684 0.000159293 -4.19002e-06 43.3684 7360.82 10577.1 
331 0.231 0.231 0 4.96649e-05 -6.25213e-05 1.19452e-06 7.40969 2442.34 3496.85 
411 1.5752 1.5752 0 0.000209876 -0.000495555 3.03655e-07 4.95555 1539.24 2114.93 
491 1.4658 1.4658 0 0.00019127 -0.000465797 1.72161e-06 4.65797 1415.21 1882.79 
571 1.325 1.325 0 0.000184071 -0.000423722 1.00556e-06 4.23722 1306.5 1723.38 
651 0.0048 0.0048 0 -9.77841e-07 -1.72522e-07 -4.19576e-08 0.100385 15.2863 32.071 
731 0.0406 0.0406 0 -1.05089e-05 1.0123e-06 -4.94248e-07 0.105089 13.0167 25.4034 
811 0.0458 0.0458 0 -1.21588e-05 -6.10373e-07 -5.31448e-07 0.121588 14.343 25.4953 
891 0.0446 0.0446 0 -1.13338e-05 -2.29986e-07 1.03527e-06 0.113338 15.586 30.1695 
971 0.2602 0.2602 0 4.66097e-05 8.45077e-05 4.17001e-07 3.38031 1176.69 1551.42 
1051 1.332 1.332 0 0.000182144 0.000421798 2.97587e-06 4.21798 1307.85 1730.81 
1131 1.505 1.505 0 0.000200024 0.00047674 -1.41946e-06 4.7674 1452.19 1935.75 
1211 1.5654 1.5654 0 0.000201501 0.000489082 2.49419e-06 4.89082 1520.11 2110.09 
12 0.7682 0.7682 0 0.000293019 2.16135e-05 -1.25014e-06 28.8552 9373.02 12736.3 
92 14.0546 14.0546 0 0.00442818 -0.000167901 3.59328e-06 44.2818 7345.18 10562.5 
172 14.3056 14.3056 0 0.00445924 1.92761e-05 1.34554e-05 44.5924 6877.2 9919.45 
252 13.6822 13.6822 0 0.00432489 0.000174652 -5.75364e-06 43.2489 7315.87 10550.9 
332 0.1936 0.1936 0 3.50819e-05 -5.56903e-05 -1.75302e-06 6.13797 1914.13 2845.09 
412 1.5518 1.5518 0 0.000206363 -0.000489778 -1.67977e-06 4.89778 1509.24 2069.02 
492 1.4518 1.4518 0 0.00018938 -0.000464078 -4.81122e-07 4.64078 1404.32 1885.38 
572 1.3266 1.3266 0 0.000180847 -0.000418235 1.99529e-06 4.18235 1283 1693.88 
652 0.0096 0.0096 0 -2.27324e-06 2.56745e-07 2.25851e-07 0.0909296 11.7774 22.8087 
732 0.0394 0.0394 0 -1.00876e-05 9.98546e-07 5.89724e-07 0.100876 7.71157 17.3331 
812 0.0454 0.0454 0 -1.1798e-05 -1.49273e-07 5.62235e-07 0.11798 12.0687 26.8881 
892 0.039 0.039 0 -1.00898e-05 -4.63724e-07 1.95391e-07 0.100898 11.622 27.1459 
972 0.5032 0.5032 0 9.1988e-05 0.000163957 1.73932e-06 3.27915 1184.04 1510.08 
1052 1.3818 1.3818 0 0.000187079 0.000439642 -7.86814e-08 4.39642 1327.09 1760.18 
1132 1.4948 1.4948 0 0.000193839 0.000476913 -2.05806e-06 4.76913 1466.36 1986.43 
1212 1.5978 1.5978 0 0.000204607 0.000498095 5.42754e-07 4.98095 1523.19 2129.14 
13 0.8232 0.8232 0 0.000313933 -4.62354e-07 3.3177e-07 31.0197 9452.96 12858.5 
93 13.945 13.945 0 0.00438636 -0.000135923 6.53963e-06 43.8636 7328.05 10558.6 
173 14.3636 14.3636 0 0.00447567 9.65918e-06 -1.68956e-05 44.7567 6931.8 10109.7 
253 13.7886 13.7886 0 0.00435734 0.000185796 7.83658e-06 43.5734 7468.4 10730.1 
333 0.1682 0.1682 0 2.37492e-05 -4.9879e-05 -1.89572e-07 5.1953 1494.73 2268.78 
413 1.559 1.559 0 0.000207811 -0.000491704 4.00434e-06 4.91704 1495.24 2070.78 
493 1.472 1.472 0 0.000194654 -0.000467007 1.8384e-06 4.67007 1437.25 1941.62 
573 1.3436 1.3436 0 0.000183192 -0.000427278 -1.04204e-06 4.27278 1316.4 1700.51 
653 0.0094 0.0094 0 -2.12957e-06 -7.04349e-08 4.44455e-07 0.0851827 13.4268 21.5339 
733 0.043 0.043 0 -1.10717e-05 -4.92437e-08 3.97108e-07 0.110717 16.3468 25.6988 
813 0.0496 0.0496 0 -1.30244e-05 -7.26525e-07 -5.39968e-07 0.130244 16.4199 32.2558 
893 0.0418 0.0418 0 -1.04761e-05 -4.06583e-07 -1.42898e-07 0.104761 16.6202 29.0586 
973 1.0592 1.0592 0 0.000188655 0.000346047 -3.81624e-06 3.46047 1241.77 1583.22 
1053 1.3868 1.3868 0 0.00019031 0.000444842 2.58368e-06 4.44842 1386.6 1834.83 
1133 1.4966 1.4966 0 0.000196062 0.000473265 -5.83201e-06 4.73265 1469.59 1976.51 
1213 1.5826 1.5826 0 0.000216534 0.00049112 2.88796e-06 4.9112 1549.63 2155.72 
14 0.9138 0.9138 0 0.000349913 -2.89358e-05 1.76181e-06 34.8376 10603.2 14496.9 
94 13.9196 13.9196 0 0.00438828 -0.00014551 1.11878e-05 43.8828 7287.77 10510 
174 14.3046 14.3046 0 0.00445935 7.22687e-06 -8.24299e-06 44.5935 6954.79 10058.6 
254 13.7668 13.7668 0 0.00435266 0.000182423 -5.28088e-07 43.5266 7399.64 10738.2 
334 0.3992 0.3992 0 4.90995e-05 -0.000119314 7.77002e-07 4.77257 1455.31 2214.1 
414 1.5722 1.5722 0 0.000207959 -0.000496497 8.79255e-07 4.96497 1543.81 2153.13 
494 1.468 1.468 0 0.000190251 -0.000468208 3.32714e-07 4.68208 1405.11 1880.9 
574 1.3046 1.3046 0 0.000181836 -0.000411854 -3.12412e-07 4.11854 1253.14 1644.18 
654 0.0214 0.0214 0 -5.31982e-06 -2.25499e-07 3.75375e-07 0.106396 11.3737 28.1392 
734 0.0448 0.0448 0 -1.1402e-05 1.98518e-07 5.90339e-07 0.11402 14.8517 31.2638 
814 0.0464 0.0464 0 -1.24639e-05 3.2209e-07 -4.46674e-07 0.124639 18.1756 33.8081 
894 0.0404 0.0404 0 -1.06541e-05 -5.86504e-07 -2.26231e-07 0.106541 11.4875 25.9812 
974 1.0684 1.0684 0 0.00019027 0.000345161 1.62198e-06 3.45161 1213.51 1561.73 
1054 1.359 1.359 0 0.000188175 0.000429002 2.79022e-07 4.29002 1310.06 1725.81 
1134 1.4936 1.4936 0 0.00019209 0.000474364 3.86829e-06 4.74364 1436.31 1930.64 
1214 1.5812 1.5812 0 0.000208722 0.000497778 2.04772e-06 4.97778 1518.42 2104.39 
15 0.9422 0.9422 0 0.000351521 -5.35603e-05 -2.679e-06 35.5091 10217.2 14112.3 
95 13.9314 13.9314 0 0.00437582 -0.000146133 -7.21445e-06 43.7582 7202.48 10329.1 
175 14.3454 14.3454 0 0.00446223 5.92135e-06 1.45675e-05 44.6223 6966.47 10099.4 
255 13.658 13.658 0 0.0043314 0.000179489 4.83452e-06 43.314 7382.8 10605.5 
335 0.3938 0.3938 0 4.63267e-05 -0.000116339 1.57929e-06 4.65354 1373.12 2064.21 
415 1.5414 1.5414 0 0.000202173 -0.000482862 1.4255e-06 4.82862 1499.18 2068.97 
495 1.4656 1.4656 0 0.000191353 -0.000460043 3.06569e-06 4.60043 1365.12 1842.46 
575 1.3162 1.3162 0 0.000181639 -0.00041615 -1.82361e-06 4.1615 1264.46 1662.67 
655 0.0432 0.0432 0 -1.01759e-05 6.51084e-07 1.22347e-07 0.101759 12.272 26.7958 
735 0.0458 0.0458 0 -1.19611e-05 -1.39663e-07 -1.49975e-07 0.119611 11.4151 24.1343 
815 0.0488 0.0488 0 -1.25353e-05 -7.71147e-07 -4.85779e-07 0.125353 15.1777 31.3495 
895 0.0468 0.0468 0 -1.15537e-05 -9.37938e-07 -6.79469e-08 0.115537 15.4652 30.1679 
975 1.0604 1.0604 0 0.000186387 0.00034419 1.11225e-06 3.4419 1182.92 1522.42 
1055 1.346 1.346 0 0.000179734 0.000430404 5.8827e-08 4.30404 1312.77 1702.11 
1135 1.5076 1.5076 0 0.000194024 0.000477401 1.43331e-06 4.77401 1432.56 1934.52 
1215 1.5928 1.5928 0 0.000216639 0.000498151 5.00722e-06 4.98151 1582.32 2198.42 
16 2.511 2.511 0 0.00093807 -0.000183515 3.71548e-06 37.5228 10797.8 14646.8 
96 13.9762 13.9762 0 0.00439556 -0.000133125 5.04829e-06 43.9556 7297 10449.4 
176 14.3238 14.3238 0 0.00445546 1.02261e-05 -4.32882e-07 44.5546 6914.77 10030.8 
256 13.7078 13.7078 0 0.00433856 0.000193012 -4.35991e-06 43.3856 7556.13 10844.5 
336 0.8148 0.8148 0 0.000103359 -0.000243423 -6.87312e-07 4.86846 1444.79 2207.73 
416 1.549 1.549 0 0.000204054 -0.000487454 -4.74371e-07 4.87454 1536.65 2114.98 
496 1.4824 1.4824 0 0.000192887 -0.000469349 2.8928e-06 4.69349 1431.55 1906.03 
576 1.3184 1.3184 0 0.000181573 -0.000421091 -6.45811e-07 4.21091 1282.59 1677.91 
656 0.037 0.037 0 -9.01635e-06 -2.54351e-07 -4.7022e-07 0.0901635 12.004 25.0909 
736 0.0494 0.0494 0 -1.25688e-05 4.86e-07 3.9278e-07 0.125688 18.111 35.6619 
816 0.0478 0.0478 0 -1.22607e-05 2.16637e-07 -8.71001e-07 0.122607 16.305 29.9957 
896 0.0384 0.0384 0 -9.87289e-06 -7.13739e-07 -9.1216e-08 0.0987289 14.3863 26.6545 
976 1.0836 1.0836 0 0.000188981 0.000348159 1.23056e-06 3.48159 1218.45 1551.22 
1056 1.3976 1.3976 0 0.000189499 0.000444508 1.88695e-06 4.44508 1382.26 1802.25 
1136 1.5048 1.5048 0 0.000197582 0.000477885 6.90255e-08 4.77885 1436.84 1946.73 
1216 1.5786 1.5786 0 0.000208509 0.000494169 3.4538e-06 4.94169 1516.28 2132.24 
17 2.5286 2.5286 0 0.000939538 -0.000179806 -1.37495e-06 37.5815 10871.8 14780.9 
97 13.9246 13.9246 0 0.00437321 -0.000131402 -1.03571e-05 43.7321 7121.23 10286.6 
177 14.265 14.265 0 0.00445179 1.99557e-05 6.73786e-06 44.5179 6993.5 10082 
257 13.6186 13.6186 0 0.00432333 0.00019978 -1.16306e-05 43.2333 7451.59 10670.4 
337 1.5958 1.5958 0 0.00020584 -0.000471956 -4.67722e-07 4.71956 1447.95 2168.91 
417 1.5714 1.5714 0 0.00020936 -0.000498071 2.20992e-06 4.98071 1557.43 2137.68 
497 1.4548 1.4548 0 0.000193417 -0.000460539 4.19479e-06 4.60539 1371.87 1878.17 
577 1.3124 1.3124 0 0.000187616 -0.000416617 3.49676e-06 4.16617 1280.81 1695.94 
657 0.0402 0.0402 0 -1.00626e-05 8.72226e-07 1.80784e-07 0.100626 12.5947 22.0278 
737 0.0462 0.0462 0 -1.20896e-05 -2.07426e-07 7.97603e-07 0.120896 12.8286 24.1575 
817 0.048 0.048 0 -1.24289e-05 -8.61367e-07 -1.69783e-07 0.124289 16.495 33.1059 
897 0.0434 0.0434 0 -1.10365e-05 -3.44625e-07 4.79989e-07 0.110365 16.6605 29.7584 
977 1.0586 1.0586 0 0.000181133 0.000342596 2.15675e-06 3.42596 1193.84 1542.6 
1057 1.381 1.381 0 0.000183884 0.000436116 6.24462e-07 4.36116 1304.39 1734.34 
1137 1.5174 1.5174 0 0.000199666 0.000480742 1.29011e-06 4.80742 1461.98 1966.2 
1217 1.6242 1.6242 0 0.000216245 0.000506425 3.80032e-06 5.06425 1634.1 2261.22 
18 5.0952 5.0952 0 0.00187817 -0.000355635 1.33207e-05 37.5634 10672 14584.1 
98 13.9592 13.9592 0 0.00438768 -0.000141064 1.18751e-05 43.8768 7161.83 10366.6 
178 14.3204 14.3204 0 0.0044617 1.69376e-05 -6.04132e-06 44.617 6923.4 10005.4 
258 13.5572 13.5572 0 0.00430133 0.000187874 -3.15539e-06 43.0133 7422.6 10625.5 
338 1.573 1.573 0 0.000208027 -0.000473101 -2.93848e-06 4.73101 1478.99 2221.49 
418 1.577 1.577 0 0.000205292 -0.000493058 -1.50686e-06 4.93058 1544.89 2094.96 
498 1.462 1.462 0 0.000194117 -0.000464227 2.14306e-06 4.64227 1389.21 1849.97 
578 1.3034 1.3034 0 0.000182017 -0.000409923 9.69245e-08 4.09923 1273.64 1690.62 
658 0.0332 0.0332 0 -8.03633e-06 -6.99293e-07 -3.36983e-07 0.0803633 6.79303 20.0894 
738 0.0388 0.0388 0 -9.83154e-06 -2.88878e-07 -4.30045e-07 0.0983154 14.4185 28.0932 
818 0.0462 0.0462 0 -1.17456e-05 -1.90671e-07 1.67312e-07 0.117456 14.6494 29.107 
898 0.0416 0.0416 0 -1.07639e-05 -1.05496e-06 -3.66769e-07 0.107639 15.1042 28.2802 
978 1.0826 1.0826 0 0.000187067 0.000348942 -2.95454e-06 3.48942 1231.06 1589.61 
1058 1.4178 1.4178 0 0.000195792 0.000449888 -1.0465e-06 4.49888 1390.09 1841.56 
1138 1.5306 1.5306 0 0.000201475 0.000485607 4.53101e-06 4.85607 1502.47 2028.1 
1218 1.5758 1.5758 0 0.000206476 0.000489465 -1.85461e-06 4.89465 1538.13 2141.3 
19 10.3372 10.3372 0 0.00376438 -0.00067272 -8.5074e-06 37.6438 10468.7 14303.3 
99 14.1668 14.1668 0 0.00444282 -0.000148297 -6.61949e-07 44.4282 7290.42 10477.6 
179 14.3856 14.3856 0 0.00447206 2.12417e-05 1.48456e-05 44.7206 6961.65 10090.1 
259 13.5968 13.5968 0 0.00433401 0.000198858 8.2364e-06 43.3401 7546.31 10850.3 
339 1.5542 1.5542 0 0.000203436 -0.000465879 -2.06618e-06 4.65879 1459.06 2154.08 
419 1.5614 1.5614 0 0.000211592 -0.000487158 -3.98202e-07 4.87158 1580.04 2135.77 
499 1.4722 1.4722 0 0.000196232 -0.000464429 -8.89069e-07 4.64429 1450.34 1946.38 
579 1.29 1.29 0 0.000186642 -0.00041493 -5.69038e-06 4.1493 1291.78 1701.9 
659 0.0402 0.0402 0 -9.62764e-06 -2.46186e-07 6.74741e-07 0.0962764 13.3165 26.4722 
739 0.0454 0.0454 0 -1.20615e-05 -2.51277e-07 -3.97649e-07 0.120615 12.3189 23.6478 
819 0.0478 0.0478 0 -1.25728e-05 1.40277e-07 -3.24306e-08 0.125728 9.34164 24.4394 
899 0.0372 0.0372 0 -9.19362e-06 -5.9578e-07 4.99094e-07 0.0919362 7.37929 15.5779 
979 1.095 1.095 0 0.000185548 0.000354302 -1.38961e-06 3.54302 1199.29 1565.16 
1059 1.3684 1.3684 0 0.00018134 0.000435375 -3.05492e-07 4.35375 1331.86 1755.26 
1139 1.4972 1.4972 0 0.000194344 0.000473545 -4.98562e-06 4.73545 1431.22 1930.56 
1219 1.5834 1.5834 0 0.000214381 0.000494695 2.54529e-06 4.94695 1563.22 2172.99 
20 10.5882 10.5882 0 0.00379686 -0.000643864 1.93692e-06 37.9686 10100.7 13926.5 
100 14.044 14.044 0 0.00440699 -0.000126694 -1.39523e-05 44.0699 7250.12 10431.9 
180 14.2964 14.2964 0 0.00445118 2.54495e-05 -2.56665e-06 44.5118 6916.48 9975.6 
260 13.5722 13.5722 0 0.00431642 0.000194057 -4.03041e-06 43.1642 7454.73 10746.8 
340 1.6018 1.6018 0 0.000213704 -0.000479716 -1.07977e-06 4.79716 1513.76 2252.48 
420 1.5496 1.5496 0 0.000205033 -0.00048954 3.54457e-06 4.8954 1536.19 2095.47 
500 1.4828 1.4828 0 0.000193958 -0.000469637 -1.27384e-06 4.69637 1411.56 1875.88 
580 1.3008 1.3008 0 0.00018524 -0.000410154 8.19958e-07 4.10154 1259.36 1648.36 
660 0.038 0.038 0 -9.08146e-06 4.40091e-08 4.6669e-07 0.0908146 12.6955 21.6581 
740 0.0462 0.0462 0 -1.20713e-05 9.60346e-07 -1.89723e-07 0.120713 16.5526 31.1142 
820 0.0486 0.0486 0 -1.2113e-05 2.57197e-07 7.6511e-07 0.12113 11.5774 23.5013 
900 0.043 0.043 0 -1.04137e-05 -1.25679e-06 5.24678e-07 0.104137 13.8767 26.2368 
980 1.0908 1.0908 0 0.000180705 0.000349928 4.66551e-07 3.49928 1169.18 1519.04 
1060 1.3812 1.3812 0 0.000185898 0.000437546 -3.15087e-06 4.37546 1318.2 1758.57 
1140 1.4966 1.4966 0 0.000191594 0.000476539 4.62063e-06 4.76539 1449.83 1940.09 
1220 1.5864 1.5864 0 0.000213015 0.000495278 -1.37874e-06 4.95278 1532.17 2131.99 
21 10.7186 10.7186 0 0.00380099 -0.000637489 -1.20552e-05 38.0099 9985.11 13761.9 
101 14.0496 14.0496 0 0.00440076 -0.000136503 4.43235e-06 44.0076 7272.06 10505.6 
181 14.2356 14.2356 0 0.00444173 2.66967e-05 2.76315e-06 44.4173 6936.84 10018.2 
261 13.5328 13.5328 0 0.00430954 0.000207054 -4.26258e-06 43.0954 7466.41 10740.6 
341 1.5712 1.5712 0 0.000206718 -0.000474815 1.60914e-07 4.74815 1498.99 2206.26 
421 1.5338 1.5338 0 0.000208602 -0.000484276 -2.99229e-06 4.84276 1493.97 2048.36 
501 1.4442 1.4442 0 0.000194224 -0.000459409 -3.0705e-08 4.59409 1424.16 1926.74 
581 1.2572 1.2572 0 0.000175968 -0.000396964 1.55895e-06 3.96964 1231.55 1614.01 
661 0.0372 0.0372 0 -9.04542e-06 -8.68456e-08 -1.5666e-08 0.0904542 7.99992 22.7863 
741 0.0444 0.0444 0 -1.14519e-05 7.74509e-07 6.3944e-07 0.114519 16.3694 32.658 
821 0.0462 0.0462 0 -1.21462e-05 -1.72976e-07 3.3002e-07 0.121462 17.4056 33.3006 
901 0.0432 0.0432 0 -1.11394e-05 -1.15163e-06 -5.58351e-07 0.111394 13.4047 28.8239 
981 1.097 1.097 0 0.000182884 0.000348534 -2.25209e-06 3.48534 1208.05 1538.76 
1061 1.3796 1.3796 0 0.000184455 0.000436413 -3.68679e-06 4.36413 1361.04 1787.38 
1141 1.5094 1.5094 0 0.000200418 0.000481365 -4.11819e-07 4.81365 1517.22 2045.3 
1221 1.5896 1.5896 0 0.000215873 0.000501489 3.71207e-06 5.01489 1612.2 2236.86 
22 10.9368 10.9368 0 0.00383187 -0.000612354 6.04931e-07 38.3187 9720.66 13443.6 
102 14.0776 14.0776 0 0.00442044 -0.00012521 -3.07382e-07 44.2044 7166.26 10290.3 
182 14.4822 14.4822 0 0.00450443 2.81325e-05 -1.26751e-05 45.0443 7041.05 10152.4 
262 13.5246 13.5246 0 0.0042896 0.00022516 -1.21573e-06 42.896 7527.94 10774.7 
342 1.5848 1.5848 0 0.000212868 -0.000479455 -1.81938e-06 4.79455 1507.7 2199.49 
422 1.5716 1.5716 0 0.000208155 -0.000496354 2.68967e-06 4.96354 1537.33 2135.76 
502 1.4722 1.4722 0 0.00019586 -0.00046792 4.4946e-07 4.6792 1413.9 1892.36 
582 1.2702 1.2702 0 0.00018008 -0.000401947 8.4714e-07 4.01947 1219.98 1584.65 
662 0.0448 0.0448 0 -1.06883e-05 7.13562e-07 -1.33114e-07 0.106883 11.9007 27.2526 
742 0.0474 0.0474 0 -1.23243e-05 -4.09375e-08 -1.21259e-07 0.123243 16.3261 34.1575 
822 0.0452 0.0452 0 -1.16288e-05 -2.43217e-07 -1.57507e-07 0.116288 17.4873 33.1524 
902 0.0452 0.0452 0 -1.16133e-05 8.01508e-08 3.39368e-07 0.116133 20.2458 35.5878 
982 1.105 1.105 0 0.000184882 0.000356571 3.95551e-06 3.56571 1210.69 1551.51 
1062 1.3872 1.3872 0 0.000185754 0.000438122 2.3195e-07 4.38122 1378.59 1809.79 
1142 1.5208 1.5208 0 0.000196745 0.000481901 4.32829e-06 4.81901 1443.54 1948.55 
1222 1.5762 1.5762 0 0.000208989 0.00049207 2.40846e-06 4.9207 1553.9 2177.24 
23 10.9466 10.9466 0 0.00382183 -0.000569208 1.36713e-06 38.2183 9345.2 12996.4 
103 13.987 13.987 0 0.00438705 -0.000118616 -9.2678e-06 43.8705 7188.75 10362.2 
183 14.3386 14.3386 0 0.00446758 3.00483e-05 -9.35269e-06 44.6758 6978.02 10040.2 
263 13.4384 13.4384 0 0.00428748 0.000219383 -4.41345e-07 42.8748 7470.35 10661.6 
343 1.596 1.596 0 0.000211941 -0.00048689 -4.64607e-06 4.8689 1512.64 2206.54 
423 1.598 1.598 0 0.000211044 -0.00050347 -5.06602e-06 5.0347 1542.34 2085.62 
503 1.4438 1.4438 0 0.000182873 -0.000456332 3.02964e-06 4.56332 1385.43 1859.43 
583 1.2798 1.2798 0 0.000182363 -0.000407775 1.38882e-07 4.07775 1283.14 1691.78 
663 0.035 0.035 0 -8.35375e-06 -1.89543e-07 -5.73335e-07 0.0835375 9.69134 21.2221 
743 0.046 0.046 0 -1.20571e-05 -6.28223e-07 -2.28183e-07 0.120571 11.1186 27.2852 
823 0.0478 0.0478 0 -1.23636e-05 -3.09088e-07 1.00867e-07 0.123636 12.1266 27.7709 
903 0.0454 0.0454 0 -1.06511e-05 -3.1521e-07 -5.19687e-08 0.106511 11.7846 23.5936 