ITEM: TIMESTEP
6000
ITEM: NUMBER OF SURFS
1272
ITEM: BOX BOUNDS oo rr pp
0 0.3
0 0.3
-0.5 0.5
ITEM: SURFS id f_2[1] f_2[2] f_2[3] f_2[4] f_2[5] f_2[6] f_2[7] f_2[8] f_2[9] 
1 0.0166 0.0166 0 0.00108579 0.00108579 -5.97708e-05 43.4315 16459.4 19707.8 
41 0.0778 0.0778 0 0.00471116 0.00471116 0.000166602 47.1116 11505.8 14802.1 
81 0.0728 0.0728 0 0.00444546 0.00444546 -0.000137893 44.4546 11152.9 14468.6 
121 0.0704 0.0704 0 0.0041925 0.0041925 0.000189349 41.925 9966.43 13345.7 
161 0.0784 0.0784 0 0.00469131 0.00469131 0.000159063 46.9131 9909.94 14347.9 
201 0.075 0.075 0 0.00454101 0.00454101 -2.33368e-06 45.4101 11122.8 13673.1 
241 0.0722 0.0722 0 0.00453146 0.00453146 -6.6684e-05 45.3146 10626.4 14117.9 
281 0.0728 0.0728 0 0.00445778 0.00445778 -0.000141388 44.5778 10974.2 13886.7 
321 0.006 0.006 0 0.000118358 0.000118358 1.38591e-05 6.58202 1332.77 2260.84 
361 0.0098 0.0098 0 0.000282861 0.000282861 -3.00899e-05 5.94204 2197.69 2911.33 
401 0.0092 0.0092 0 0.000222255 0.000222255 -9.57397e-06 5.54836 1773.42 2690.88 
441 0.0066 0.0066 0 0.000263055 0.000263055 -1.48936e-06 3.54481 1587.98 1708.48 
481 0.0042 0.0042 0 0.000161504 0.000161504 -2.57742e-05 2.28003 941.136 1204.85 
521 0.0056 0.0056 0 0.000131637 0.000131637 -4.0626e-05 3.38026 931.865 1176.61 
561 0.006 0.006 0 0.000175268 0.000175268 3.22561e-05 3.55936 1110.32 1422.99 
601 0.0056 0.0056 0 0.000196508 0.000196508 -1.56933e-05 3.12093 1267.36 1491.98 
641 0.0002 0.0002 0 -1.0467e-05 -1.0467e-05 5.32727e-06 0.10467 -6.28581 10.1372 
681 0 0 0 0 0 0 0 0 0 
721 0 0 0 0 0 0 0 0 0 
761 0 0 0 0 0 0 0 0 0 
801 0.0002 0.0002 0 -1.22687e-05 -1.22687e-05 6.07433e-06 0.122687 15.3282 33.478 
841 0 0 0 0 0 0 0 0 0 
881 0.0004 0.0004 0 -2.12251e-05 -2.12251e-05 1.05112e-05 0.212251 69.5738 57.9492 
921 0.0002 0.0002 0 -1.24628e-05 -1.24628e-05 1.19364e-05 0.124628 32.9489 57.3253 
961 0.0062 0.0062 0 0.000191891 0.000191891 -1.97087e-05 3.19403 1009.23 1432.42 
1001 0.0074 0.0074 0 0.000257017 0.000257017 3.50972e-05 3.62302 1445.68 2017.2 
1041 0.0072 0.0072 0 0.000169883 0.000169883 4.62754e-05 3.91945 1126.64 1731.57 
1081 0.0056 0.0056 0 0.000151558 0.000151558 -6.33377e-06 3.35464 907.808 1241.72 
1121 0.0074 0.0074 0 0.000182936 0.000182936 3.6293e-05 4.20073 1289.67 1658.79 
1161 0.0066 0.0066 0 0.000194187 0.000194187 -3.70976e-05 3.33979 1325.5 1844.73 
1201 0.0098 0.0098 0 0.000242891 0.000242891 -1.63332e-05 5.55142 2104.22 2503.77 
1241 0.0094 0.0094 0 0.000257942 0.000257942 9.4207e-05 5.43981 2531.66 3703.8 
2 0.012 0.012 0 0.000835237 0.000835237 -6.92386e-05 33.4095 9788.39 11604.7 
42 0.0718 0.0718 0 0.00431306 0.00431306 4.38851e-05 43.1306 10692.4 14183.2 
82 0.0784 0.0784 0 0.00470029 0.00470029 0.000156976 47.0029 11858.1 14337.6 
122 0.0724 0.0724 0 0.00456742 0.00456742 2.8712e-05 45.6742 9415.96 11963.1 
162 0.0716 0.0716 0 0.00423423 0.00423423 -2.77898e-05 42.3423 9709.67 12608.8 
202 0.075 0.075 0 0.00444884 0.00444884 -0.000290893 44.4884 9869.89 13549.7 
242 0.0702 0.0702 0 0.00442424 0.00442424 -4.72465e-05 44.2424 10483.8 13925.6 
282 0.0744 0.0744 0 0.00469617 0.00469617 -2.73846e-05 46.9617 12964.6 16865.6 
322 0.0098 0.0098 0 0.000206529 0.000206529 -2.32174e-05 5.19671 1561.78 1916.21 
362 0.008 0.008 0 0.000215438 0.000215438 -3.46493e-05 4.53957 1422.67 1872.26 
402 0.0088 0.0088 0 0.000331257 0.000331257 -9.20423e-05 4.33338 1988.86 2671.18 
442 0.0068 0.0068 0 0.000202706 0.000202706 -3.30262e-05 4.01188 1036.26 1449.42 
482 0.006 0.006 0 0.000188366 0.000188366 -3.47957e-05 3.27358 1221.43 1640.48 
522 0.0068 0.0068 0 0.000200437 0.000200437 -4.18565e-05 3.52455 1234.91 1705.81 
562 0.0052 0.0052 0 0.000131108 0.000131108 1.47709e-06 2.79808 1233.58 1532.25 
602 0.0042 0.0042 0 0.000121145 0.000121145 4.69798e-06 2.1006 636.751 644.51 
642 0 0 0 0 0 0 0 0 0 
682 0.0004 0.0004 0 -2.0758e-05 -2.0758e-05 -4.00347e-06 0.20758 18.7269 25.1493 
722 0 0 0 0 0 0 0 0 0 
762 0.0002 0.0002 0 -9.04004e-06 -9.04004e-06 -1.38773e-06 0.0904004 -11.5873 -27.0961 
802 0.0002 0.0002 0 -1.17799e-05 -1.17799e-05 -6.70188e-06 0.117799 -13.9763 29.1668 
842 0 0 0 0 0 0 0 0 0 
882 0 0 0 0 0 0 0 0 0 
922 0.0002 0.0002 0 -8.73305e-06 -8.73305e-06 3.5686e-06 0.0873305 7.22388 36.121 
962 0.0072 0.0072 0 0.000290606 0.000290606 8.39145e-06 3.71179 1863.89 2261.67 
1002 0.0064 0.0064 0 0.000104196 0.000104196 2.26602e-05 3.89815 819.028 966.335 
1042 0.0068 0.0068 0 0.000152293 0.000152293 8.55309e-06 3.69408 968.675 1603.71 
1082 0.0084 0.0084 0 0.000260197 0.000260197 -2.10134e-06 4.7845 1893.96 2643.7 
1122 0.0098 0.0098 0 0.000329074 0.000329074 -9.58237e-06 5.29717 2841.4 3773.04 
1162 0.0062 0.0062 0 0.00020541 0.00020541 -6.73801e-06 3.78485 1882.42 2481.34 
1202 0.0072 0.0072 0 0.00019614 0.00019614 -2.24891e-05 4.07599 1083.27 1597.09 
1242 0.011 0.011 0 0.000323814 0.000323814 2.41004e-05 6.59631 2163.04 2871.41 
3 0.0334 0.0334 0 0.00233027 0.00233027 3.87686e-06 46.6055 14595.6 18918.1 
43 0.0726 0.0726 0 0.00433596 0.00433596 8.82394e-05 43.3596 8656.37 11927.1 
83 0.075 0.075 0 0.00466497 0.00466497 0.00016007 46.6497 10275.8 13945.7 
123 0.0796 0.0796 0 0.00493672 0.00493672 0.000104156 49.3672 10917.6 14456.3 
163 0.0786 0.0786 0 0.00466495 0.00466495 -5.55341e-05 46.6495 10607.9 13797.5 
203 0.0724 0.0724 0 0.00445684 0.00445684 -0.000108855 44.5684 10021.6 13680.7 
243 0.0658 0.0658 0 0.00416922 0.00416922 -0.000133398 41.6922 11864.6 15514.2 
283 0.078 0.078 0 0.00507376 0.00507376 -7.72144e-05 50.7376 14268.5 18488.1 
323 0.011 0.011 0 0.000258655 0.000258655 4.32955e-05 5.87451 1786.13 2500.58 
363 0.009 0.009 0 0.000251472 0.000251472 2.65875e-05 4.98434 2371.12 2823.96 
403 0.008 0.008 0 0.000296615 0.000296615 5.20339e-05 4.57942 2036.38 2710.45 
443 0.0062 0.0062 0 0.000137745 0.000137745 -7.51115e-06 4.13159 813.687 1489.58 
483 0.007 0.007 0 0.000173399 0.000173399 -3.92776e-05 3.40331 1223.96 1610.34 
523 0.0058 0.0058 0 0.000161773 0.000161773 1.53154e-05 3.56689 1290.61 1606.09 
563 0.0066 0.0066 0 0.000138591 0.000138591 2.99439e-05 3.25626 831.641 977.867 
603 0.0064 0.0064 0 0.000226645 0.000226645 2.24007e-05 3.43286 1579.68 1905.56 
643 0.0002 0.0002 0 -1.49913e-05 -1.49913e-05 8.41902e-07 0.149913 -76.8957 -91.3989 
683 0.0002 0.0002 0 -4.51917e-06 -4.51917e-06 5.67658e-06 0.0451917 1.27113 3.05496 
723 0.0002 0.0002 0 -1.51186e-05 -1.51186e-05 0 0.151186 3.90001e-14 3.90001e-14 
763 0.0002 0.0002 0 -1.78114e-05 -1.78114e-05 1.28873e-05 0.178114 54.303 30.9945 
803 0 0 0 0 0 0 0 0 0 
843 0 0 0 0 0 0 0 0 0 
883 0 0 0 0 0 0 0 0 0 
923 0.0004 0.0004 0 -1.28383e-05 -1.28383e-05 -6.90029e-06 0.128383 -9.1365 1.949 
963 0.0048 0.0048 0 0.000185513 0.000185513 4.65727e-05 2.39892 1130.52 1309.65 
1003 0.0054 0.0054 0 0.000119641 0.000119641 -3.01979e-05 2.89454 1084.32 1642.04 
1043 0.0064 0.0064 0 0.000199522 0.000199522 -3.8421e-05 3.35655 941.227 1145.8 
1083 0.0072 0.0072 0 0.000179487 0.000179487 5.72375e-05 3.90945 1270.65 1844.55 
1123 0.0076 0.0076 0 0.000140311 0.000140311 8.13676e-06 4.74219 1199.34 1349.08 
1163 0.0078 0.0078 0 0.000196214 0.000196214 4.66995e-05 4.43357 1142.63 1850.33 
1203 0.0086 0.0086 0 0.000241889 0.000241889 3.72389e-05 4.37934 1600.77 2271.55 
1243 0.0072 0.0072 0 0.000266046 0.000266046 4.70117e-06 3.87489 1772.56 2756.04 
4 0.0602 0.0602 0 0.0038752 0.0038752 9.16341e-05 38.752 11345.3 15049.1 
44 0.0666 0.0666 0 0.00381159 0.00381159 5.1419e-05 38.1159 8364.85 12288.3 
84 0.0754 0.0754 0 0.00437981 0.00437981 3.98658e-05 43.7981 10318.4 13548.6 
124 0.0724 0.0724 0 0.00429262 0.00429262 -0.000178222 42.9262 9983.92 14084.4 
164 0.0732 0.0732 0 0.00459295 0.00459295 -0.000209874 45.9295 8878.33 12424.7 
204 0.0684 0.0684 0 0.00396951 0.00396951 7.84933e-05 39.6951 9249.94 12403.3 
244 0.064 0.064 0 0.00390609 0.00390609 3.57799e-05 39.0609 9691.73 14335.6 
284 0.07 0.07 0 0.00449856 0.00449856 0.000222636 44.9856 13176.5 17293.5 
324 0.0098 0.0098 0 0.000356148 0.000356148 -7.46662e-06 5.31188 2547.01 3195.22 
364 0.009 0.009 0 0.000288343 0.000288343 4.40573e-05 5.09676 2278.97 3133.31 
404 0.006 0.006 0 0.0002281 0.0002281 2.51954e-05 3.69473 1572.54 2326.47 
444 0.0072 0.0072 0 0.000149166 0.000149166 -9.11771e-06 3.67277 868.153 1557.69 
484 0.0078 0.0078 0 0.000160885 0.000160885 2.50708e-05 4.30189 1445.93 1874.67 
524 0.008 0.008 0 0.00022924 0.00022924 2.21005e-05 4.57192 1793.69 2729.6 
564 0.0072 0.0072 0 0.000150776 0.000150776 5.20377e-06 3.69365 1134.36 1515.56 
604 0.004 0.004 0 9.77937e-05 9.77937e-05 1.46257e-05 2.23248 225.483 361.427 
644 0 0 0 0 0 0 0 0 0 
684 0.0002 0.0002 0 -2.35436e-05 -2.35436e-05 -4.41769e-06 0.235436 177.384 212.498 
724 0 0 0 0 0 0 0 0 0 
764 0 0 0 0 0 0 0 0 0 
804 0 0 0 0 0 0 0 0 0 
844 0.0002 0.0002 0 -4.4312e-06 -4.4312e-06 2.13852e-06 0.044312 8.10236 39.9489 
884 0.0004 0.0004 0 -1.85733e-05 -1.85733e-05 2.51266e-06 0.185733 45.5653 49.1651 
924 0 0 0 0 0 0 0 0 0 
964 0.0048 0.0048 0 0.000134918 0.000134918 1.13112e-05 2.33028 875.841 727.281 
1004 0.0068 0.0068 0 0.000217907 0.000217907 1.22825e-05 3.95656 1120.77 1880.47 
1044 0.0064 0.0064 0 0.000105123 0.000105123 1.14245e-05 4.18149 672 904.486 
1084 0.0084 0.0084 0 0.000309752 0.000309752 1.19108e-05 5.1271 2441.09 2851.55 
1124 0.0058 0.0058 0 0.000168955 0.000168955 3.83493e-06 3.07899 1256.65 1529.09 
1164 0.0114 0.0114 0 0.000260625 0.000260625 4.50261e-05 6.34817 2046.79 2860.04 
1204 0.0088 0.0088 0 0.00025099 0.00025099 -5.37364e-05 4.2247 1185.02 1884.3 
1244 0.0088 0.0088 0 0.000266771 0.000266771 -5.55644e-05 5.24845 1881.85 2682.87 
5 0.0642 0.0642 0 0.00427978 0.00427978 -0.000240151 42.7978 12416.5 16113.1 
45 0.0724 0.0724 0 0.00448626 0.00448626 -1.2579e-05 44.8626 10577.8 13905.8 
85 0.0712 0.0712 0 0.00439759 0.00439759 1.42311e-05 43.9759 10827.4 14967.5 
125 0.0758 0.0758 0 0.00449896 0.00449896 1.22522e-07 44.9896 10053.3 13712.2 
165 0.0746 0.0746 0 0.00452964 0.00452964 -7.93461e-05 45.2964 8992.84 12018.1 
205 0.0744 0.0744 0 0.00438781 0.00438781 0.000157007 43.8781 9296.14 13022 
245 0.0714 0.0714 0 0.00455958 0.00455958 -4.44414e-05 45.5958 13657.8 17446.4 
285 0.0628 0.0628 0 0.00410768 0.00410768 0.000120424 41.0768 12706.1 15767.4 
325 0.0098 0.0098 0 0.000279207 0.000279207 5.43537e-05 5.28093 2026.12 3031.19 
365 0.01 0.01 0 0.000297828 0.000297828 -6.63766e-05 5.96778 2296.14 3113.25 
405 0.0064 0.0064 0 0.000209655 0.000209655 1.89535e-05 3.11043 1234.93 1332.82 
445 0.0062 0.0062 0 0.000176097 0.000176097 7.84157e-07 3.61751 1142.66 1484.87 
485 0.0064 0.0064 0 0.000267098 0.000267098 7.62284e-07 3.91415 1576.05 1890.43 
525 0.0062 0.0062 0 0.000223881 0.000223881 3.02864e-05 3.32812 1452.49 1788.46 
565 0.0072 0.0072 0 0.000246058 0.000246058 -3.23782e-06 4.40234 1635.53 2234.71 
605 0.0064 0.0064 0 0.000241326 0.000241326 9.92151e-06 3.36878 1460.01 1687.83 
645 0.0002 0.0002 0 -7.13544e-06 -7.13544e-06 -7.74437e-07 0.0713544 -7.97234 -19.3409 
685 0.0002 0.0002 0 -1.38863e-05 -1.38863e-05 0 0.138863 3.12001e-14 3.12001e-14 
725 0.0002 0.0002 0 -1.1885e-05 -1.1885e-05 1.75513e-05 0.11885 20.0644 15.1167 
765 0 0 0 0 0 0 0 0 0 
805 0.0002 0.0002 0 -1.11058e-05 -1.11058e-05 -2.97e-06 0.111058 45.928 41.7587 
845 0 0 0 0 0 0 0 0 0 
885 0.0002 0.0002 0 -7.71497e-06 -7.71497e-06 9.96538e-06 0.0771497 12.9553 22.8628 
925 0 0 0 0 0 0 0 0 0 
965 0.0058 0.0058 0 0.000209538 0.000209538 3.00367e-05 3.74858 1351.62 1665.69 
1005 0.0052 0.0052 0 0.000108832 0.000108832 -3.96688e-05 2.87162 758.463 981.356 
1045 0.007 0.007 0 0.000248243 0.000248243 -2.32225e-05 4.0692 1863.93 2155.14 
1085 0.0062 0.0062 0 0.000237886 0.000237886 4.27133e-05 3.59052 1289.37 1715.85 
1125 0.0078 0.0078 0 0.000259765 0.000259765 -7.4534e-05 4.6484 1473.63 1943.15 
1165 0.0108 0.0108 0 0.000177263 0.000177263 6.47128e-05 6.00243 1704.16 1986.51 
1205 0.0086 0.0086 0 0.000158356 0.000158356 -3.87156e-05 4.27008 861.829 1464.59 
1245 0.0074 0.0074 0 0.000216552 0.000216552 8.01287e-06 4.48281 1520.04 2357.21 
6 0.065 0.065 0 0.00414567 0.00414567 -3.07279e-05 41.4567 13298.6 18241.8 
46 0.0634 0.0634 0 0.00376743 0.00376743 0.000127816 37.6743 8937.19 12979 
86 0.0724 0.0724 0 0.00449853 0.00449853 3.6556e-05 44.9853 8527.47 11817 
126 0.0762 0.0762 0 0.00446573 0.00446573 4.52579e-05 44.6573 9358.03 13688 
166 0.0734 0.0734 0 0.00436399 0.00436399 3.61669e-05 43.6399 10683.1 14899.6 
206 0.0798 0.0798 0 0.00474383 0.00474383 -0.000159543 47.4383 9578.67 13401.2 
246 0.0686 0.0686 0 0.00422221 0.00422221 0.000142078 42.2221 10690.3 14246.7 
286 0.0746 0.0746 0 0.00464786 0.00464786 0.000118042 46.4786 12162.1 16189.5 
326 0.0104 0.0104 0 0.000271682 0.000271682 3.10696e-05 5.66018 2283.05 3389.2 
366 0.0072 0.0072 0 0.000195093 0.000195093 4.6855e-06 3.96132 1524.35 2141.99 
406 0.0088 0.0088 0 0.000192831 0.000192831 -1.53928e-05 4.51215 1560.05 2334.88 
446 0.0078 0.0078 0 0.000209845 0.000209845 5.54159e-05 4.42292 1129.25 1652.96 
486 0.008 0.008 0 0.000198191 0.000198191 2.59297e-05 4.8437 1477.84 1810.25 
526 0.0102 0.0102 0 0.000308588 0.000308588 -1.75888e-05 5.77468 1582.5 2466.5 
566 0.0048 0.0048 0 0.000116797 0.000116797 -1.2148e-05 3.13133 685.753 1205.32 
606 0.006 0.006 0 0.000176667 0.000176667 6.90477e-05 3.65683 1273.45 1732.07 
646 0.0002 0.0002 0 -6.48928e-06 -6.48928e-06 3.66772e-07 0.0648928 30.74 22.072 
686 0 0 0 0 0 0 0 0 0 
726 0 0 0 0 0 0 0 0 0 
766 0 0 0 0 0 0 0 0 0 
806 0.0002 0.0002 0 -7.24781e-06 -7.24781e-06 4.48176e-06 0.0724781 22.1482 28.2844 
846 0.0002 0.0002 0 -1.7621e-05 -1.7621e-05 4.31625e-06 0.17621 70.9646 85.8105 
886 0.0002 0.0002 0 -7.17259e-06 -7.17259e-06 -5.60011e-06 0.0717259 -14.5482 -24.9751 
926 0.0002 0.0002 0 -7.54296e-06 -7.54296e-06 3.55199e-06 0.0754296 -17.7696 -28.1199 
966 0.0078 0.0078 0 0.000200985 0.000200985 -7.73392e-05 4.22154 1811.46 2229.37 
1006 0.0076 0.0076 0 0.000205717 0.000205717 1.9485e-05 4.89768 1650.08 1863.69 
1046 0.0058 0.0058 0 0.000137156 0.000137156 -6.15665e-06 3.26265 944.985 1302.78 
1086 0.007 0.007 0 0.000119708 0.000119708 1.79923e-05 4.47825 1061.66 1525.56 
1126 0.0066 0.0066 0 0.000167553 0.000167553 3.3001e-05 4.16384 1340.56 1817.98 
1166 0.0086 0.0086 0 0.000207022 0.000207022 -6.94094e-06 4.75448 1768.7 2568.08 
1206 0.009 0.009 0 0.000298038 0.000298038 2.59828e-05 5.26023 1795.76 2452.47 
1246 0.009 0.009 0 0.000233768 0.000233768 5.86198e-05 4.19877 1447.97 2531.9 
7 0.0632 0.0632 0 0.00418634 0.00418634 -0.00015301 41.8634 10879.4 14688 
47 0.069 0.069 0 0.00420685 0.00420685 -5.02202e-05 42.0685 10743.8 13705 
87 0.0786 0.0786 0 0.00466013 0.00466013 -0.000260875 46.6013 12037.1 15412.7 
127 0.0642 0.0642 0 0.00378014 0.00378014 -5.39304e-05 37.8014 7306.32 11107.3 
167 0.0772 0.0772 0 0.00463882 0.00463882 -0.00019003 46.3882 9308.75 13026 
207 0.0856 0.0856 0 0.00520158 0.00520158 3.73896e-05 52.0158 11836.9 16625.1 
247 0.0732 0.0732 0 0.00466093 0.00466093 -0.000161402 46.6093 10746.5 14783.3 
287 0.0752 0.0752 0 0.0047152 0.0047152 0.000128537 47.152 13065.8 16883.1 
327 0.0098 0.0098 0 0.00034473 0.00034473 -1.37286e-05 5.67311 2794.51 3499.83 
367 0.01 0.01 0 0.000266576 0.000266576 -1.14858e-05 5.1794 2093.68 2925.49 
407 0.0072 0.0072 0 0.000192226 0.000192226 1.06232e-05 3.67391 699.932 1000.62 
447 0.0096 0.0096 0 0.000293962 0.000293962 -4.58427e-05 5.63147 1764.57 2166.43 
487 0.0084 0.0084 0 0.000319384 0.000319384 2.03328e-05 5.10545 2316.08 2886.18 
527 0.0064 0.0064 0 0.000226653 0.000226653 2.577e-05 4.00889 1388.01 1737.54 
567 0.0058 0.0058 0 0.000169965 0.000169965 -1.92562e-05 3.36728 1760.54 1936.28 
607 0.005 0.005 0 0.00014922 0.00014922 9.53053e-06 2.86018 907.018 1361.12 
647 0 0 0 0 0 0 0 0 0 
687 0 0 0 0 0 0 0 0 0 
727 0.0002 0.0002 0 -1.20333e-05 -1.20333e-05 -2.79813e-06 0.120333 25.8775 91.8709 
767 0 0 0 0 0 0 0 0 0 
807 0.0002 0.0002 0 -1.12508e-05 -1.12508e-05 -4.78606e-07 0.112508 -37.5225 -52.7324 
847 0.0002 0.0002 0 -1.32346e-05 -1.32346e-05 -1.2948e-05 0.132346 50.5341 23.0345 
887 0.0002 0.0002 0 -8.7789e-06 -8.7789e-06 1.08692e-06 0.087789 -0.941749 -3.35007 
927 0 0 0 0 0 0 0 0 0 
967 0.0082 0.0082 0 0.00027527 0.00027527 1.9071e-05 4.64271 1928.71 2239.73 
1007 0.0074 0.0074 0 0.000258496 0.000258496 2.76435e-05 4.03749 1953.36 2390.46 
1047 0.0062 0.0062 0 0.00017079 0.00017079 5.08726e-05 3.45027 1359.24 1526.91 
1087 0.0066 0.0066 0 0.000173816 0.000173816 -6.55556e-05 3.58582 1296.39 1508.78 
1127 0.0076 0.0076 0 0.000259096 0.000259096 -1.44765e-05 3.94219 1272.21 1818.52 
1167 0.01 0.01 0 0.000309042 0.000309042 2.1502e-05 5.44262 1794.38 2232.78 
1207 0.0096 0.0096 0 0.000291437 0.000291437 6.03293e-05 5.9216 2220.82 2946.46 
1247 0.0072 0.0072 0 0.000196471 0.000196471 -3.68478e-05 3.8292 1081.73 1674.62 
8 0.0658 0.0658 0 0.0041336 0.0041336 -5.76986e-05 41.336 10905.2 15733.1 
48 0.076 0.076 0 0.00458816 0.00458816 4.45319e-05 45.8816 9751.04 13992.7 
88 0.0822 0.0822 0 0.00491645 0.00491645 -4.71264e-05 49.1645 12848.2 17380.7 
128 0.0726 0.0726 0 0.00430631 0.00430631 -1.33469e-05 43.0631 9359.77 13432.9 
168 0.0734 0.0734 0 0.00460419 0.00460419 0.000292642 46.0419 9880.17 13549.2 
208 0.0754 0.0754 0 0.00449945 0.00449945 3.74198e-05 44.9945 8317.56 12287.4 
248 0.0676 0.0676 0 0.00415933 0.00415933 0.000145082 41.5933 10253 14249.2 
288 0.0746 0.0746 0 0.00483924 0.00483924 4.38555e-05 48.3924 11930.7 16214.4 
328 0.0106 0.0106 0 0.000310742 0.000310742 1.83251e-05 6.16075 2178.9 3086.14 
368 0.0098 0.0098 0 0.00027357 0.00027357 3.44543e-05 5.68854 2084.11 2800.09 
408 0.0104 0.0104 0 0.000292794 0.000292794 -7.41443e-05 5.67593 1901.22 2349.8 
448 0.0092 0.0092 0 0.000261771 0.000261771 1.68342e-05 5.42126 2031.38 2412.3 
488 0.0066 0.0066 0 0.000199535 0.000199535 4.12703e-05 3.9376 1694.71 2154.38 
528 0.0082 0.0082 0 0.000217436 0.000217436 -2.07019e-05 5.43508 2122.1 2614.5 
568 0.0078 0.0078 0 0.000122337 0.000122337 1.17389e-08 3.88549 1080.41 1368.5 
608 0.0046 0.0046 0 0.000168049 0.000168049 -1.01518e-05 2.84747 1111.27 1259.75 
648 0.0004 0.0004 0 -2.10514e-05 -2.10514e-05 -3.20224e-06 0.210514 8.85002 -4.86033 
688 0.0002 0.0002 0 -6.46434e-06 -6.46434e-06 4.66397e-06 0.0646434 3.94796 19.6122 
728 0.0002 0.0002 0 -7.40573e-06 -7.40573e-06 3.51206e-06 0.0740573 9.93425 46.3723 
768 0.0002 0.0002 0 -5.41904e-06 -5.41904e-06 4.84044e-06 0.0541904 11.8183 16.4011 
808 0 0 0 0 0 0 0 0 0 
848 0.0002 0.0002 0 -6.81355e-06 -6.81355e-06 6.97317e-08 0.0681355 -0.860179 -1.54134 
888 0 0 0 0 0 0 0 0 0 
928 0.0004 0.0004 0 -9.99208e-06 -9.99208e-06 -1.53315e-05 0.0999208 36.8423 84.4585 
968 0.0046 0.0046 0 9.27685e-05 9.27685e-05 2.21581e-05 2.97416 631.732 1103.52 
1008 0.0062 0.0062 0 0.000184411 0.000184411 7.21581e-07 3.32589 837.686 1335.24 
1048 0.006 0.006 0 0.000233817 0.000233817 -6.57415e-05 3.24295 1672.52 1991.97 
1088 0.0074 0.0074 0 0.000188615 0.000188615 1.43183e-05 4.29934 1829.25 1988.17 
1128 0.0098 0.0098 0 0.000209351 0.000209351 6.8609e-05 5.3334 1427.8 1989.81 
1168 0.008 0.008 0 0.000235801 0.000235801 -1.70498e-05 4.277 1370.23 1786.31 
1208 0.0088 0.0088 0 0.000252639 0.000252639 0.000103623 5.32903 1507.44 2015.37 
1248 0.0084 0.0084 0 0.000292508 0.000292508 9.13732e-07 4.29856 2118.43 2916.14 
9 0.0634 0.0634 0 0.00404763 0.00404763 0.000119488 40.4763 10137.7 14136.3 
49 0.072 0.072 0 0.00459212 0.00459212 0.000252813 45.9212 10938.8 14989.3 
89 0.067 0.067 0 0.00387347 0.00387347 -0.000125669 38.7347 8641.21 11707.8 
129 0.0752 0.0752 0 0.00440904 0.00440904 -5.36574e-05 44.0904 9183.78 13069.7 
169 0.0716 0.0716 0 0.00435089 0.00435089 -7.46083e-05 43.5089 8603.77 12132.4 
209 0.0768 0.0768 0 0.004536 0.004536 -0.000177914 45.36 11337.8 16035.2 
249 0.0678 0.0678 0 0.00407374 0.00407374 -3.85719e-05 40.7374 10191.3 14232.1 
289 0.0774 0.0774 0 0.00497937 0.00497937 -0.000352731 49.7937 14886 19193.4 
329 0.009 0.009 0 0.000238481 0.000238481 2.2301e-05 5.41269 1834.66 2378.09 
369 0.0058 0.0058 0 0.000186291 0.000186291 -6.97781e-05 3.52367 908.422 1094.22 
409 0.01 0.01 0 0.000266365 0.000266365 6.73628e-05 5.2764 2157.35 2796.19 
449 0.0066 0.0066 0 0.000190768 0.000190768 3.08849e-05 3.88365 1381.4 1688.37 
489 0.0068 0.0068 0 0.000179106 0.000179106 4.26151e-05 4.06109 1571.96 2081.36 
529 0.007 0.007 0 0.000183767 0.000183767 -3.69257e-05 4.25994 1186.09 1618.19 
569 0.0042 0.0042 0 0.000128418 0.000128418 -7.19028e-06 2.49152 726.674 1027.59 
609 0.0054 0.0054 0 0.000181026 0.000181026 2.55049e-05 2.79953 1167.28 1561.35 
649 0 0 0 0 0 0 0 0 0 
689 0.0002 0.0002 0 -1.84338e-05 -1.84338e-05 0 0.184338 0 0 
729 0.0004 0.0004 0 -7.61676e-06 -7.61676e-06 -7.06319e-06 0.0761676 135.589 148.1 
769 0 0 0 0 0 0 0 0 0 
809 0.0008 0.0008 0 -3.73605e-05 -3.73605e-05 7.43622e-06 0.373605 91.1662 138.916 
849 0 0 0 0 0 0 0 0 0 
889 0 0 0 0 0 0 0 0 0 
929 0 0 0 0 0 0 0 0 0 
969 0.0028 0.0028 0 0.000111308 0.000111308 1.92293e-05 1.65054 805.202 839.434 
1009 0.0064 0.0064 0 0.000182593 0.000182593 -2.3179e-05 3.83657 1168.73 1584.25 
1049 0.006 0.006 0 0.000161793 0.000161793 3.71879e-05 2.83765 1248.5 1593.16 
1089 0.007 0.007 0 0.00021252 0.00021252 -3.6413e-05 4.09179 1591.82 2061.42 
1129 0.0066 0.0066 0 0.000196182 0.000196182 -1.02115e-05 3.9641 1455.69 1649.42 
1169 0.009 0.009 0 0.000202512 0.000202512 8.46004e-07 5.55501 1696.94 1924.24 
1209 0.0114 0.0114 0 0.000238353 0.000238353 1.4329e-06 6.79145 2416.93 3060.71 
1249 0.0098 0.0098 0 0.00031742 0.00031742 -1.26422e-05 5.33234 2243.31 3264.73 
10 0.0652 0.0652 0 0.00395684 0.00395684 -2.99656e-05 39.5684 12132.2 16050.5 
50 0.0636 0.0636 0 0.00386853 0.00386853 0.00016428 38.6853 8930.11 11369.9 
90 0.0652 0.0652 0 0.00375851 0.00375851 3.38611e-05 37.5851 8714.35 11670.2 
130 0.0788 0.0788 0 0.00473992 0.00473992 2.83193e-05 47.3992 11067.4 15215.5 
170 0.0764 0.0764 0 0.00463439 0.00463439 0.000122569 46.3439 10092.2 14554.6 
210 0.0776 0.0776 0 0.00469983 0.00469983 -0.00016542 46.9983 9322.22 11514.3 
250 0.0692 0.0692 0 0.0043297 0.0043297 7.1366e-05 43.297 10419.6 13871.5 
290 0.0694 0.0694 0 0.00450135 0.00450135 -3.11495e-05 45.0135 14096 18480.7 
330 0.0096 0.0096 0 0.000300883 0.000300883 3.90476e-05 4.68388 1640.74 2482.13 
370 0.0096 0.0096 0 0.000394094 0.000394094 -5.71896e-05 5.23924 2539.86 3250.31 
410 0.0092 0.0092 0 0.000209789 0.000209789 -6.30298e-05 4.94299 1937.8 2316.98 
450 0.0054 0.0054 0 0.000116291 0.000116291 -1.78538e-05 2.87427 1046.32 1289.57 
490 0.008 0.008 0 0.000312232 0.000312232 -1.68388e-05 4.13988 1694.95 1869.05 
530 0.008 0.008 0 0.00012241 0.00012241 3.79797e-06 4.34496 1006.6 1270.93 
570 0.0078 0.0078 0 0.000254468 0.000254468 -2.57273e-05 3.99461 1527.78 1782.82 
610 0.0056 0.0056 0 0.000194506 0.000194506 -2.49908e-06 3.39732 1575 1852.8 
650 0.0002 0.0002 0 -1.58326e-05 -1.58326e-05 0 0.158326 3.12001e-14 3.12001e-14 
690 0.0002 0.0002 0 -9.61188e-06 -9.61188e-06 3.09709e-06 0.0961188 -7.22578 -9.44412 
730 0 0 0 0 0 0 0 0 0 
770 0 0 0 0 0 0 0 0 0 
810 0 0 0 0 0 0 0 0 0 
850 0 0 0 0 0 0 0 0 0 
890 0 0 0 0 0 0 0 0 0 
930 0 0 0 0 0 0 0 0 0 
970 0.0074 0.0074 0 0.000242256 0.000242256 -1.6809e-05 4.06219 1335.09 1943.46 
1010 0.0044 0.0044 0 0.000166731 0.000166731 4.00884e-05 2.42475 904.759 1046.05 
1050 0.0054 0.0054 0 0.000136282 0.000136282 -3.30364e-05 2.66138 944.094 1183.14 
1090 0.0054 0.0054 0 0.00014607 0.00014607 2.62305e-05 3.14897 1217 1587.81 
1130 0.0088 0.0088 0 0.000190874 0.000190874 -1.24557e-05 5.20188 1429.91 2072.15 
1170 0.008 0.008 0 0.000273878 0.000273878 3.48911e-05 4.91907 1585.25 1772.94 
1210 0.0096 0.0096 0 0.000179709 0.000179709 6.59732e-05 5.90856 1733.79 2295.44 
1250 0.0098 0.0098 0 0.00030135 0.00030135 1.95742e-07 5.19877 1744.59 2305.6 
11 0.0728 0.0728 0 0.00471094 0.00471094 -8.12081e-05 47.1094 14202.5 18762.3 
51 0.0844 0.0844 0 0.00486159 0.00486159 0.000148557 48.6159 12318.7 16865.5 
91 0.0718 0.0718 0 0.00418993 0.00418993 -1.81865e-06 41.8993 9456.58 13100.3 
131 0.0708 0.0708 0 0.00430554 0.00430554 -2.35781e-05 43.0554 8970.91 12320.6 
171 0.0714 0.0714 0 0.00414524 0.00414524 -0.000187185 41.4524 8647.06 12850.8 
211 0.0692 0.0692 0 0.00421805 0.00421805 4.47585e-06 42.1805 8543.82 10924.2 
251 0.068 0.068 0 0.00450214 0.00450214 -7.01924e-05 45.0214 10115.3 14226.8 
291 0.0742 0.0742 0 0.00470862 0.00470862 2.96894e-05 47.0862 11877.6 16097.3 
331 0.0094 0.0094 0 0.000181858 0.000181858 -5.56537e-05 4.91691 1292.43 2160.1 
371 0.0084 0.0084 0 0.00015814 0.00015814 -1.06471e-05 5.41036 1457.49 1838.59 
411 0.007 0.007 0 0.000230078 0.000230078 5.42391e-06 4.21924 1418.81 1934.29 
451 0.0108 0.0108 0 0.00036439 0.00036439 1.55801e-05 6.66438 2495.63 3139.73 
491 0.0054 0.0054 0 0.000151851 0.000151851 3.50402e-05 2.68749 1095.98 1622.18 
531 0.0044 0.0044 0 0.000112946 0.000112946 6.66457e-06 2.3867 434.92 881.565 
571 0.0064 0.0064 0 0.00011948 0.00011948 6.57604e-05 3.3262 892.902 1265.69 
611 0.0058 0.0058 0 0.000201861 0.000201861 6.54427e-06 3.21756 1359.28 1780 
651 0 0 0 0 0 0 0 0 0 
691 0 0 0 0 0 0 0 0 0 
731 0.0002 0.0002 0 -6.15238e-06 -6.15238e-06 -1.08136e-05 0.0615238 48.2359 42.9726 
771 0.0002 0.0002 0 -1.29491e-05 -1.29491e-05 1.32144e-06 0.129491 51.6436 47.03 
811 0.0004 0.0004 0 -1.79566e-05 -1.79566e-05 9.1205e-06 0.179566 18.3644 18.8647 
851 0.0002 0.0002 0 -9.35604e-06 -9.35604e-06 4.31076e-06 0.0935604 -15.4289 -26.2184 
891 0 0 0 0 0 0 0 0 0 
931 0.0004 0.0004 0 -2.55272e-05 -2.55272e-05 1.31336e-05 0.255272 -37.2483 -21.2445 
971 0.0046 0.0046 0 0.000178854 0.000178854 -3.93522e-06 2.85555 1003.37 1208.25 
1011 0.0038 0.0038 0 0.000109694 0.000109694 -4.23797e-05 1.92288 939.534 1163.76 
1051 0.0078 0.0078 0 0.000190489 0.000190489 3.37816e-05 4.51742 1100.24 1355.94 
1091 0.0096 0.0096 0 0.000289946 0.000289946 2.92323e-05 6.16449 1961.94 2414.48 
1131 0.0066 0.0066 0 0.000125739 0.000125739 -3.75851e-06 3.55603 930.482 1351.73 
1171 0.009 0.009 0 0.000267843 0.000267843 4.71042e-05 5.64084 2189.11 3024.87 
1211 0.0082 0.0082 0 0.000260825 0.000260825 -5.22014e-05 4.56323 2183.25 2634.11 
1251 0.0094 0.0094 0 0.000303985 0.000303985 -3.14117e-05 5.4022 2053.65 2760.94 
12 0.0736 0.0736 0 0.00481419 0.00481419 -7.32241e-05 48.1419 14407.2 19554.4 
52 0.0762 0.0762 0 0.00471411 0.00471411 -2.8102e-05 47.1411 11820.1 15159.8 
92 0.07 0.07 0 0.00430998 0.00430998 5.76929e-05 43.0998 9537.27 13288.5 
132 0.0834 0.0834 0 0.00511805 0.00511805 0.000184174 51.1805 12000.4 15996.4 
172 0.0744 0.0744 0 0.00451428 0.00451428 -0.000106182 45.1428 9957.98 13343.1 
212 0.0726 0.0726 0 0.00432474 0.00432474 0.000215309 43.2474 9724.52 12669.9 
252 0.0722 0.0722 0 0.00460726 0.00460726 2.9019e-05 46.0726 10707 15188 
292 0.0694 0.0694 0 0.00448292 0.00448292 -2.00004e-05 44.8292 11459.6 16291.1 
332 0.0086 0.0086 0 0.000285649 0.000285649 -1.02132e-05 4.86537 1589.83 2244.94 
372 0.0078 0.0078 0 0.000197075 0.000197075 -4.36205e-05 4.51627 1550.88 1940.67 
412 0.0064 0.0064 0 0.000180318 0.000180318 6.16877e-05 3.78816 1486.81 2021.13 
452 0.0078 0.0078 0 0.000233666 0.000233666 -4.10573e-05 5.31334 1913.09 2394.77 
492 0.0076 0.0076 0 0.000257944 0.000257944 3.79798e-05 4.24423 1409.27 1965.92 
532 0.0058 0.0058 0 0.000101082 0.000101082 7.3035e-06 3.67452 789.868 1085.81 
572 0.0058 0.0058 0 0.00027648 0.00027648 6.72333e-06 3.29258 1765.15 2249.12 
612 0.004 0.004 0 8.67905e-05 8.67905e-05 1.5878e-05 1.9584 545.543 692.736 
652 0.0004 0.0004 0 -1.87165e-05 -1.87165e-05 1.06627e-05 0.187165 -5.00163 30.083 
692 0 0 0 0 0 0 0 0 0 
732 0 0 0 0 0 0 0 0 0 
772 0 0 0 0 0 0 0 0 0 
812 0.0002 0.0002 0 -1.10159e-05 -1.10159e-05 -7.39275e-06 0.110159 11.5938 4.22019 
852 0.0002 0.0002 0 -1.62386e-05 -1.62386e-05 0 0.162386 4.68001e-14 4.68001e-14 
892 0 0 0 0 0 0 0 0 0 
932 0.0002 0.0002 0 -6.17206e-06 -6.17206e-06 5.71711e-06 0.0617206 4.04177 3.40575 
972 0.0054 0.0054 0 0.000150125 0.000150125 2.0137e-05 2.99827 1040.86 1105.49 
1012 0.0066 0.0066 0 0.000189879 0.000189879 -1.90595e-05 3.51564 1455.99 1851.89 
1052 0.008 0.008 0 0.000202094 0.000202094 -0.000117241 4.96214 2046.27 2729.06 
1092 0.0056 0.0056 0 0.000170273 0.000170273 -1.24429e-05 3.34553 1659.8 1911.07 
1132 0.007 0.007 0 0.000206251 0.000206251 1.59395e-05 3.75285 1063.64 1391.97 
1172 0.0088 0.0088 0 0.00026207 0.00026207 -4.89014e-05 5.01611 1446.17 2148.79 
1212 0.009 0.009 0 0.000261129 0.000261129 -1.83915e-05 4.82037 2434.73 3472.83 
1252 0.0098 0.0098 0 0.000291745 0.000291745 -3.79678e-05 5.71019 1545.12 2336.46 
13 0.073 0.073 0 0.00462772 0.00462772 -2.91362e-05 46.2772 12022.7 16028.5 
53 0.078 0.078 0 0.00487738 0.00487738 -8.73931e-05 48.7738 11016.4 14387 
93 0.074 0.074 0 0.00447074 0.00447074 0.000105118 44.7074 10901.8 13377.2 
133 0.0818 0.0818 0 0.00496999 0.00496999 8.67922e-05 49.6999 13158.5 17095.3 
173 0.0752 0.0752 0 0.00456508 0.00456508 -9.88679e-06 45.6508 9851.2 13308.3 
213 0.0676 0.0676 0 0.00410876 0.00410876 0.000150022 41.0876 9513.81 13048.7 
253 0.0734 0.0734 0 0.00456596 0.00456596 9.7063e-05 45.6596 11037 14678.9 
293 0.0658 0.0658 0 0.00436846 0.00436846 3.84396e-06 43.6846 10126.6 13292.2 
333 0.0088 0.0088 0 0.000248207 0.000248207 -3.19616e-05 4.52157 1950.57 2902.25 
373 0.007 0.007 0 0.000184261 0.000184261 7.4261e-05 3.99777 1169.57 1355.62 
413 0.008 0.008 0 0.000286061 0.000286061 -2.40551e-05 4.65643 1179.09 1695.77 
453 0.0076 0.0076 0 0.000225115 0.000225115 5.76118e-05 3.83107 1319.87 2189.27 
493 0.007 0.007 0 0.000254683 0.000254683 -2.70384e-05 3.91545 1510.01 2139.33 
533 0.0048 0.0048 0 0.000118155 0.000118155 -1.32454e-06 2.93449 1159.14 1347.46 
573 0.008 0.008 0 0.000248667 0.000248667 3.02284e-05 5.06127 2072.17 2808.28 
613 0.0054 0.0054 0 0.0001442 0.0001442 -2.53791e-05 3.30508 794.837 1156.14 
653 0 0 0 0 0 0 0 0 0 
693 0 0 0 0 0 0 0 0 0 
733 0.0002 0.0002 0 -1.57203e-05 -1.57203e-05 2.46875e-06 0.157203 34.7718 110.982 
773 0.0002 0.0002 0 -1.2815e-05 -1.2815e-05 8.26112e-07 0.12815 11.199 36.7923 
813 0.0004 0.0004 0 -1.52518e-05 -1.52518e-05 8.8617e-06 0.152518 34.8523 59.9968 