ITEM: TIMESTEP
6000
ITEM: NUMBER OF SURFS
1272
ITEM: BOX BOUNDS oo rr pp
0 0.3
0 0.3
-0.5 0.5
ITEM: SURFS id f_2[1] f_2[2] f_2[3] f_2[4] f_2[5] f_2[6] f_2[7] f_2[8] f_2[9] 
1 0.5232 0.5232 0 0.000980514 0.000980514 -2.13968e-06 39.2206 11999.9 15683.6 
41 2.631 2.631 0 0.00431292 0.00431292 1.75667e-07 43.1292 8632.77 12149 
81 2.7494 2.7494 0 0.00439661 0.00439661 -1.84837e-05 43.9661 8041.27 11342.2 
121 2.8276 2.8276 0 0.00451568 0.00451568 9.3985e-06 45.1568 8034.97 11351.7 
161 2.8652 2.8652 0 0.00454642 0.00454642 2.67171e-06 45.4642 7824.45 11087.3 
201 2.834 2.834 0 0.004531 0.004531 3.10817e-06 45.31 8185.92 11600.3 
241 2.699 2.699 0 0.00437503 0.00437503 7.33829e-06 43.7503 8465.98 11774.4 
281 2.4474 2.4474 0 0.00416524 0.00416524 1.81568e-06 41.6524 9355.49 13089.9 
321 0.1636 0.1636 0 0.000103492 0.000103492 1.24186e-05 4.90763 1487.11 2167.03 
361 0.2826 0.2826 0 0.000191872 0.000191872 -1.18789e-05 4.37347 1510.79 2043.1 
401 0.2868 0.2868 0 0.000203606 0.000203606 -1.16717e-05 4.47061 1453.81 2014.66 
441 0.281 0.281 0 0.000195966 0.000195966 -8.79008e-06 4.47548 1428.93 1883.87 
481 0.2606 0.2606 0 0.00019118 0.00019118 6.90191e-06 4.17148 1405.86 1813.5 
521 0.2452 0.2452 0 0.000184445 0.000184445 -8.15131e-07 3.85789 1254.31 1655.97 
561 0.226 0.226 0 0.000181177 0.000181177 -1.20525e-06 3.55788 1372.07 1738.53 
601 0.1942 0.1942 0 0.000178753 0.000178753 3.00557e-06 3.07767 1175.86 1457.37 
641 0.0042 0.0042 0 -4.90666e-06 -4.90666e-06 -2.63735e-07 0.0490666 8.56651 12.1766 
681 0.0048 0.0048 0 -5.98907e-06 -5.98907e-06 -1.70462e-08 0.0598907 11.7679 20.0648 
721 0.0058 0.0058 0 -7.4395e-06 -7.4395e-06 -4.56129e-07 0.074395 15.0033 24.2044 
761 0.0042 0.0042 0 -5.22673e-06 -5.22673e-06 1.20096e-07 0.0522673 6.79215 18.1891 
801 0.0052 0.0052 0 -6.04716e-06 -6.04716e-06 1.33847e-06 0.0604716 4.7918 11.7756 
841 0.0028 0.0028 0 -3.64507e-06 -3.64507e-06 2.97256e-07 0.0364507 1.80267 6.67421 
881 0.0034 0.0034 0 -3.76688e-06 -3.76688e-06 1.64727e-07 0.0376688 2.72469 4.42929 
921 0.0054 0.0054 0 -7.05524e-06 -7.05524e-06 -1.65846e-06 0.0705524 6.27781 10.2818 
961 0.199 0.199 0 0.000201014 0.000201014 1.00509e-06 3.19198 1281.53 1569.02 
1001 0.2248 0.2248 0 0.000189917 0.000189917 -1.09861e-05 3.5974 1363.79 1778.65 
1041 0.2424 0.2424 0 0.000188626 0.000188626 -7.35329e-06 3.87345 1347.11 1742.58 
1081 0.2618 0.2618 0 0.000189209 0.000189209 8.96177e-07 4.10626 1395.12 1843.81 
1121 0.2714 0.2714 0 0.000193763 0.000193763 -7.45264e-06 4.2925 1451 1940.9 
1161 0.2768 0.2768 0 0.000200897 0.000200897 -4.06446e-06 4.34921 1524.27 2021.61 
1201 0.2712 0.2712 0 0.000195171 0.000195171 -1.93693e-06 4.29491 1463.2 1932.2 
1241 0.3016 0.3016 0 0.000212622 0.000212622 -3.10903e-06 4.60939 1615.19 2315.32 
2 0.5334 0.5334 0 0.00100151 0.00100151 9.316e-06 40.0603 12071.2 16216.3 
42 2.6414 2.6414 0 0.00433065 0.00433065 -4.21856e-05 43.3065 8696.77 12207.6 
82 2.7996 2.7996 0 0.00448441 0.00448441 -2.65809e-05 44.8441 8399.06 11786.9 
122 2.8262 2.8262 0 0.0045064 0.0045064 2.00385e-05 45.064 8091.66 11462.2 
162 2.8336 2.8336 0 0.00448988 0.00448988 2.52431e-05 44.8988 7787 11127.3 
202 2.8016 2.8016 0 0.00448124 0.00448124 -9.38522e-06 44.8124 7852.87 11077.9 
242 2.7206 2.7206 0 0.00441874 0.00441874 6.12877e-06 44.1874 8304.47 11816.3 
282 2.4468 2.4468 0 0.00415829 0.00415829 -5.5521e-06 41.5829 9507.21 13339.7 
322 0.3018 0.3018 0 0.000218138 0.000218138 -8.71293e-07 4.58494 1561.34 2300.23 
362 0.2958 0.2958 0 0.000209835 0.000209835 1.32798e-05 4.5418 1483.33 2051.96 
402 0.2716 0.2716 0 0.000209344 0.000209344 -5.12042e-06 4.33937 1521.46 2089.53 
442 0.2654 0.2654 0 0.000180815 0.000180815 1.51403e-05 4.24141 1252.52 1656.4 
482 0.2616 0.2616 0 0.000191743 0.000191743 -8.09126e-06 4.17257 1433.43 1759.95 
522 0.2436 0.2436 0 0.000184883 0.000184883 9.33659e-07 3.88618 1419.73 1836.56 
562 0.2248 0.2248 0 0.000181264 0.000181264 -2.25516e-06 3.52962 1302.09 1709.21 
602 0.2014 0.2014 0 0.000194303 0.000194303 2.90543e-06 3.16167 1314.1 1636.01 
642 0.0046 0.0046 0 -6.25427e-06 -6.25427e-06 8.63888e-07 0.0625427 4.99952 15.397 
682 0.0042 0.0042 0 -4.89224e-06 -4.89224e-06 -1.05439e-06 0.0489224 6.20442 9.34043 
722 0.0032 0.0032 0 -4.91271e-06 -4.91271e-06 -8.72004e-07 0.0491271 7.9249 10.1295 
762 0.0048 0.0048 0 -5.35297e-06 -5.35297e-06 1.00007e-06 0.0535297 8.50751 16.2063 
802 0.0054 0.0054 0 -6.8989e-06 -6.8989e-06 -1.84661e-06 0.068989 6.17192 6.94877 
842 0.0036 0.0036 0 -3.67068e-06 -3.67068e-06 -2.69799e-07 0.0367068 5.20116 12.3047 
882 0.004 0.004 0 -4.96669e-06 -4.96669e-06 1.60647e-08 0.0496669 2.13141 7.26582 
922 0.0052 0.0052 0 -6.16028e-06 -6.16028e-06 -7.4787e-07 0.0616028 7.90047 18.0289 
962 0.1826 0.1826 0 0.000177931 0.000177931 -2.18555e-06 2.92735 1139.17 1382.56 
1002 0.2276 0.2276 0 0.000193953 0.000193953 -1.0821e-06 3.59782 1291.56 1646.58 
1042 0.2406 0.2406 0 0.000181634 0.000181634 -8.85231e-06 3.83356 1294.89 1673.85 
1082 0.2516 0.2516 0 0.000190591 0.000190591 1.73703e-06 3.93191 1363.88 1794.29 
1122 0.2658 0.2658 0 0.000201999 0.000201999 5.71216e-06 4.18785 1518.14 1987.33 
1162 0.2722 0.2722 0 0.000193541 0.000193541 1.32114e-06 4.27869 1437.35 1896.79 
1202 0.3004 0.3004 0 0.000221939 0.000221939 1.19162e-06 4.74103 1645.7 2232.14 
1242 0.3078 0.3078 0 0.000224416 0.000224416 1.09738e-06 4.67525 1557.53 2104.36 
3 1.0836 1.0836 0 0.0019923 0.0019923 1.67394e-06 39.8459 11772.6 15924.4 
43 2.6732 2.6732 0 0.00442089 0.00442089 -2.27574e-05 44.2089 8859.25 12426.8 
83 2.7762 2.7762 0 0.00442106 0.00442106 2.89741e-05 44.2106 8218.38 11598.9 
123 2.8568 2.8568 0 0.00454821 0.00454821 6.7929e-06 45.4821 8167.69 11428.2 
163 2.8416 2.8416 0 0.00449691 0.00449691 5.68229e-06 44.9691 7950.33 11305.9 
203 2.8198 2.8198 0 0.00449918 0.00449918 4.35534e-06 44.9918 8048.16 11525.5 
243 2.68 2.68 0 0.00433911 0.00433911 9.21047e-06 43.3911 8263.33 11584.4 
283 2.415 2.415 0 0.00412259 0.00412259 -9.52899e-06 41.2259 9695.42 13441.6 
323 0.3086 0.3086 0 0.000218301 0.000218301 4.55597e-06 4.62715 1500.36 2248.88 
363 0.3028 0.3028 0 0.00021853 0.00021853 -8.95445e-06 4.69924 1625.49 2234.71 
403 0.2962 0.2962 0 0.000213501 0.000213501 9.55127e-06 4.64581 1565.75 2084.41 
443 0.2788 0.2788 0 0.000211839 0.000211839 1.55462e-06 4.45555 1513.03 1976.73 
483 0.2604 0.2604 0 0.000191824 0.000191824 4.02273e-07 4.11064 1397.16 1799.77 
523 0.2504 0.2504 0 0.000187336 0.000187336 -9.12423e-07 4.04847 1272.5 1627.53 
563 0.2346 0.2346 0 0.00018241 0.00018241 -8.67416e-07 3.77952 1238.55 1594.99 
603 0.1914 0.1914 0 0.000172672 0.000172672 -3.39245e-06 3.01066 1134.37 1444.25 
643 0.004 0.004 0 -4.81164e-06 -4.81164e-06 -7.14991e-07 0.0481164 2.20537 15.3856 
683 0.0036 0.0036 0 -4.74539e-06 -4.74539e-06 4.26161e-08 0.0474539 2.39594 7.59269 
723 0.0036 0.0036 0 -4.44772e-06 -4.44772e-06 1.04989e-06 0.0444772 1.3845 7.51069 
763 0.0052 0.0052 0 -7.03894e-06 -7.03894e-06 -4.50079e-07 0.0703894 8.42268 15.7543 
803 0.004 0.004 0 -5.69132e-06 -5.69132e-06 4.88746e-07 0.0569132 13.9787 18.1564 
843 0.0038 0.0038 0 -4.69487e-06 -4.69487e-06 -7.18719e-08 0.0469487 4.80682 6.72056 
883 0.0042 0.0042 0 -5.40794e-06 -5.40794e-06 8.39886e-07 0.0540794 7.29738 17.5856 
923 0.0046 0.0046 0 -5.3768e-06 -5.3768e-06 3.29488e-07 0.053768 10.3452 17.2068 
963 0.1954 0.1954 0 0.000187772 0.000187772 -5.08752e-07 3.12047 1260 1536.42 
1003 0.2212 0.2212 0 0.000170186 0.000170186 1.44462e-05 3.59129 1231.37 1605.08 
1043 0.2492 0.2492 0 0.000187941 0.000187941 -3.93719e-06 3.99974 1408.18 1819.34 
1083 0.2462 0.2462 0 0.000191438 0.000191438 -4.6916e-06 3.98131 1411.87 1791.05 
1123 0.2618 0.2618 0 0.000199236 0.000199236 8.50551e-07 4.1673 1422.74 1874.69 
1163 0.285 0.285 0 0.0002191 0.0002191 -6.69905e-06 4.57226 1548.59 2132.13 
1203 0.2862 0.2862 0 0.000208584 0.000208584 2.10791e-06 4.4491 1551.22 2083.04 
1243 0.301 0.301 0 0.000209042 0.000209042 -8.27108e-06 4.54097 1611.25 2327.21 
4 2.1622 2.1622 0 0.00400658 0.00400658 -1.14321e-05 40.0658 11863.9 15819.2 
44 2.681 2.681 0 0.00439482 0.00439482 1.50545e-05 43.9482 8549.08 12064.9 
84 2.8108 2.8108 0 0.00450124 0.00450124 3.8773e-06 45.0124 8241.86 11590.3 
124 2.849 2.849 0 0.00454233 0.00454233 8.29786e-06 45.4233 7960.32 11250.8 
164 2.8708 2.8708 0 0.00456025 0.00456025 2.57078e-05 45.6025 8139.99 11407.1 
204 2.7992 2.7992 0 0.00444691 0.00444691 -7.06287e-06 44.4691 7953.56 11221.5 
244 2.7416 2.7416 0 0.00443204 0.00443204 2.77292e-05 44.3204 8391.29 11655.7 
284 2.4196 2.4196 0 0.00411694 0.00411694 -9.61408e-06 41.1694 9755 13427.7 
324 0.2968 0.2968 0 0.000203427 0.000203427 7.96005e-06 4.50139 1490.58 2204.42 
364 0.3102 0.3102 0 0.000227145 0.000227145 7.76976e-07 4.80754 1660.83 2282.5 
404 0.2844 0.2844 0 0.000199945 0.000199945 -1.05048e-05 4.54617 1515.85 2063.68 
444 0.2658 0.2658 0 0.000198785 0.000198785 -2.0063e-07 4.19762 1433.99 1882.36 
484 0.247 0.247 0 0.000178985 0.000178985 -1.44753e-06 3.90664 1202.44 1573.34 
524 0.2442 0.2442 0 0.000184086 0.000184086 4.51224e-06 3.97753 1390.47 1782.48 
564 0.2262 0.2262 0 0.000166783 0.000166783 5.79764e-06 3.52448 1220.97 1519.1 
604 0.1918 0.1918 0 0.000167929 0.000167929 3.78406e-06 3.09742 1084.24 1382.16 
644 0.004 0.004 0 -4.61935e-06 -4.61935e-06 9.00039e-07 0.0461935 8.7866 10.3205 
684 0.005 0.005 0 -6.41777e-06 -6.41777e-06 2.42803e-07 0.0641777 3.38367 8.85908 
724 0.0036 0.0036 0 -3.85351e-06 -3.85351e-06 3.15739e-07 0.0385351 18.4191 31.8599 
764 0.0052 0.0052 0 -5.36182e-06 -5.36182e-06 -5.96956e-07 0.0536182 1.75359 10.8081 
804 0.0048 0.0048 0 -6.29599e-06 -6.29599e-06 8.08147e-07 0.0629599 11.4171 26.0781 
844 0.003 0.003 0 -2.84267e-06 -2.84267e-06 -3.78871e-07 0.0284267 2.85496 7.12723 
884 0.0042 0.0042 0 -5.70742e-06 -5.70742e-06 -4.20133e-07 0.0570742 1.36346 8.12922 
924 0.0042 0.0042 0 -4.79295e-06 -4.79295e-06 -8.38919e-07 0.0479295 3.80047 9.01124 
964 0.1892 0.1892 0 0.000174691 0.000174691 -8.49652e-06 2.96878 1172.25 1501.29 
1004 0.2258 0.2258 0 0.000180438 0.000180438 1.93821e-06 3.62489 1251.05 1601.55 
1044 0.2408 0.2408 0 0.000176645 0.000176645 -3.78398e-06 3.78106 1357.39 1743.67 
1084 0.2656 0.2656 0 0.000194884 0.000194884 -3.99992e-06 4.11878 1404.77 1863.31 
1124 0.2638 0.2638 0 0.000197553 0.000197553 1.56978e-06 4.15293 1424.05 1862.87 
1164 0.2858 0.2858 0 0.000211127 0.000211127 -1.09657e-05 4.4809 1525.49 2008.64 
1204 0.2912 0.2912 0 0.000222323 0.000222323 -1.02405e-06 4.56594 1620.08 2170.67 
1244 0.2944 0.2944 0 0.000222622 0.000222622 6.81804e-06 4.50359 1551.82 2285.5 
5 2.1786 2.1786 0 0.00398201 0.00398201 1.49962e-05 39.8201 11160.3 14987.6 
45 2.6154 2.6154 0 0.00428545 0.00428545 3.22403e-05 42.8545 8713.7 12220.3 
85 2.7966 2.7966 0 0.00449043 0.00449043 1.01302e-05 44.9043 8229.76 11635.8 
125 2.8356 2.8356 0 0.00449778 0.00449778 -2.83914e-05 44.9778 7900.66 11204.4 
165 2.8334 2.8334 0 0.00453585 0.00453585 -1.57109e-05 45.3585 8256.84 11554 
205 2.809 2.809 0 0.00447378 0.00447378 -3.96156e-05 44.7378 8064.77 11289.7 
245 2.7618 2.7618 0 0.00448257 0.00448257 -8.34322e-06 44.8257 8583.61 12068.3 
285 2.4266 2.4266 0 0.00414341 0.00414341 -1.12513e-05 41.4341 9682.39 13272.9 
325 0.302 0.302 0 0.000220549 0.000220549 -6.58251e-07 4.54866 1585.17 2270.62 
365 0.2948 0.2948 0 0.000216644 0.000216644 1.10327e-06 4.59759 1636.62 2242.36 
405 0.2828 0.2828 0 0.000210904 0.000210904 2.57683e-06 4.39025 1536.84 2065.72 
445 0.2718 0.2718 0 0.000204201 0.000204201 -1.09256e-07 4.28628 1465.49 1982.27 
485 0.2474 0.2474 0 0.000195685 0.000195685 -3.99141e-06 3.94949 1415.71 1801.38 
525 0.2466 0.2466 0 0.000182466 0.000182466 -7.18056e-06 3.94393 1343.18 1733.27 
565 0.2316 0.2316 0 0.000188148 0.000188148 6.36053e-07 3.63645 1258.9 1667.49 
605 0.1976 0.1976 0 0.00017778 0.00017778 3.24049e-06 3.18876 1222.9 1521.63 
645 0.0056 0.0056 0 -6.89508e-06 -6.89508e-06 7.57118e-07 0.0689508 0.156506 6.62806 
685 0.002 0.002 0 -2.19975e-06 -2.19975e-06 4.59893e-07 0.0219975 2.6159 7.53823 
725 0.0044 0.0044 0 -5.4793e-06 -5.4793e-06 -4.22447e-07 0.054793 9.58105 22.1484 
765 0.0044 0.0044 0 -4.99207e-06 -4.99207e-06 -4.19245e-07 0.0499207 5.18867 13.0516 
805 0.0042 0.0042 0 -4.79437e-06 -4.79437e-06 -3.6629e-08 0.0479437 3.6321 6.56549 
845 0.0022 0.0022 0 -3.06875e-06 -3.06875e-06 -1.66276e-08 0.0306875 6.55295 16.5468 
885 0.0048 0.0048 0 -5.36993e-06 -5.36993e-06 1.11786e-06 0.0536993 3.1275 13.8995 
925 0.0048 0.0048 0 -6.19468e-06 -6.19468e-06 -1.12243e-06 0.0619468 1.49224 16.1092 
965 0.1814 0.1814 0 0.000165713 0.000165713 -5.62124e-06 2.91931 1103.05 1372.76 
1005 0.2296 0.2296 0 0.000188321 0.000188321 -2.18895e-06 3.71844 1315.7 1675.71 
1045 0.2356 0.2356 0 0.000177814 0.000177814 2.28352e-06 3.67369 1282.15 1666.69 
1085 0.2542 0.2542 0 0.000193757 0.000193757 -6.73983e-07 4.0896 1398.61 1771.44 
1125 0.2622 0.2622 0 0.000197731 0.000197731 -3.47871e-06 4.20718 1392.36 1884.91 
1165 0.2656 0.2656 0 0.000195255 0.000195255 -1.21361e-05 4.215 1434.89 1917.69 
1205 0.306 0.306 0 0.000223624 0.000223624 7.00304e-06 4.81104 1734.92 2316.05 
1245 0.298 0.298 0 0.000211028 0.000211028 3.94936e-06 4.44025 1491.32 2136.05 
6 2.1944 2.1944 0 0.00395674 0.00395674 2.06545e-06 39.5674 11000.9 14914.5 
46 2.6542 2.6542 0 0.004324 0.004324 1.44507e-05 43.24 8730.83 12237.5 
86 2.793 2.793 0 0.00443688 0.00443688 1.96628e-06 44.3688 7933.22 11066.6 
126 2.8628 2.8628 0 0.00456984 0.00456984 7.81806e-06 45.6984 8070.17 11559.1 
166 2.8496 2.8496 0 0.00448917 0.00448917 -5.5991e-08 44.8917 7759.99 10914.1 
206 2.805 2.805 0 0.00447157 0.00447157 1.30456e-05 44.7157 8074.52 11477.4 
246 2.7368 2.7368 0 0.00444923 0.00444923 3.2945e-05 44.4923 8481.6 12142.6 
286 2.3686 2.3686 0 0.00406909 0.00406909 -5.34397e-05 40.6909 9794.03 13399.2 
326 0.3086 0.3086 0 0.000231397 0.000231397 -9.21703e-06 4.72246 1604.68 2258.1 
366 0.3012 0.3012 0 0.000228649 0.000228649 3.341e-06 4.75343 1633.89 2221.37 
406 0.2778 0.2778 0 0.000218153 0.000218153 -1.55748e-06 4.33875 1573.61 2111.82 
446 0.2664 0.2664 0 0.000190733 0.000190733 3.69261e-06 4.22883 1451.62 1939.52 
486 0.2598 0.2598 0 0.000199954 0.000199954 6.98916e-06 4.11093 1524.31 1935.27 
526 0.2394 0.2394 0 0.000184929 0.000184929 4.96956e-07 3.82533 1304.11 1702.37 
566 0.2218 0.2218 0 0.000164934 0.000164934 3.88852e-06 3.49236 1176.12 1533.07 
606 0.1944 0.1944 0 0.000186617 0.000186617 -9.20198e-06 3.12439 1265.39 1563.83 
646 0.0042 0.0042 0 -4.88857e-06 -4.88857e-06 -5.67249e-07 0.0488857 5.88791 11.0396 
686 0.0048 0.0048 0 -5.5578e-06 -5.5578e-06 -8.55826e-07 0.055578 10.6269 22.0967 
726 0.0046 0.0046 0 -5.99008e-06 -5.99008e-06 6.10168e-07 0.0599008 6.02385 14.0453 
766 0.0036 0.0036 0 -4.15674e-06 -4.15674e-06 8.72327e-07 0.0415674 7.91665 16.7198 
806 0.0064 0.0064 0 -8.86799e-06 -8.86799e-06 -8.53538e-07 0.0886799 8.8436 17.8112 
846 0.003 0.003 0 -3.55356e-06 -3.55356e-06 -2.51036e-07 0.0355356 7.93419 13.9994 
886 0.0038 0.0038 0 -5.22632e-06 -5.22632e-06 -4.82255e-07 0.0522632 2.95205 3.5019 
926 0.0038 0.0038 0 -4.81246e-06 -4.81246e-06 1.02508e-06 0.0481246 6.84896 9.97965 
966 0.1962 0.1962 0 0.000179814 0.000179814 -3.15906e-06 3.10583 1173.36 1466.12 
1006 0.2216 0.2216 0 0.000181482 0.000181482 -6.85803e-06 3.55181 1249.87 1629.42 
1046 0.2462 0.2462 0 0.000180251 0.000180251 -1.68768e-06 3.83591 1314.23 1748.53 
1086 0.2428 0.2428 0 0.000176762 0.000176762 1.23223e-05 3.81094 1295.56 1647.62 
1126 0.2708 0.2708 0 0.000198028 0.000198028 -9.49217e-06 4.26879 1450.85 1902.26 
1166 0.2808 0.2808 0 0.000204104 0.000204104 -1.42511e-05 4.37174 1559.29 2056.05 
1206 0.2834 0.2834 0 0.000218214 0.000218214 -4.49245e-06 4.28563 1472.45 1983.76 
1246 0.2976 0.2976 0 0.000213188 0.000213188 1.22351e-06 4.50477 1542.85 2125.08 
7 2.2104 2.2104 0 0.00396087 0.00396087 2.37368e-05 39.6087 10721.7 14488.2 
47 2.6328 2.6328 0 0.00431085 0.00431085 3.19694e-06 43.1085 8464.89 11957.6 
87 2.7928 2.7928 0 0.00445131 0.00445131 -1.16405e-05 44.5131 8069.54 11441 
127 2.8248 2.8248 0 0.00449408 0.00449408 7.90786e-06 44.9408 8018.12 11122.2 
167 2.8432 2.8432 0 0.00454534 0.00454534 -3.81658e-06 45.4534 8016.54 11404.4 
207 2.8392 2.8392 0 0.00452048 0.00452048 -8.28914e-06 45.2048 7891.61 11164.9 
247 2.6674 2.6674 0 0.00433555 0.00433555 -2.14815e-05 43.3555 8536.22 12121.8 
287 2.4052 2.4052 0 0.00413477 0.00413477 3.16103e-05 41.3477 9865.38 13652.4 
327 0.3008 0.3008 0 0.000199284 0.000199284 7.5467e-07 4.59646 1386.33 2004.2 
367 0.2914 0.2914 0 0.000210625 0.000210625 -1.09889e-05 4.46501 1490.27 2013.82 
407 0.282 0.282 0 0.000198946 0.000198946 -1.0031e-05 4.47105 1549.16 2042.68 
447 0.2598 0.2598 0 0.000171949 0.000171949 -1.04473e-05 4.10162 1338.79 1721.17 
487 0.2582 0.2582 0 0.00017823 0.00017823 -2.56546e-06 4.15704 1344.39 1753.92 
527 0.2394 0.2394 0 0.000178313 0.000178313 1.13278e-06 3.78529 1315.28 1715.07 
567 0.2382 0.2382 0 0.000196631 0.000196631 1.98808e-06 3.78512 1468.95 1865.23 
607 0.1892 0.1892 0 0.000176548 0.000176548 -6.47881e-06 3.02584 1182.66 1519.99 
647 0.0052 0.0052 0 -7.365e-06 -7.365e-06 -3.8259e-07 0.07365 5.14342 19.5739 
687 0.0018 0.0018 0 -2.36839e-06 -2.36839e-06 4.51637e-08 0.0236839 4.35671 4.76421 
727 0.0052 0.0052 0 -6.15337e-06 -6.15337e-06 -7.12494e-07 0.0615337 6.24956 17.6067 
767 0.0044 0.0044 0 -5.44302e-06 -5.44302e-06 9.14495e-07 0.0544302 4.55669 13.9238 
807 0.0042 0.0042 0 -4.18238e-06 -4.18238e-06 9.54227e-07 0.0418238 5.27954 12.2541 
847 0.0064 0.0064 0 -9.21647e-06 -9.21647e-06 -7.97583e-07 0.0921647 13.8809 27.2406 
887 0.0048 0.0048 0 -5.19976e-06 -5.19976e-06 -3.38987e-07 0.0519976 14.5022 22.3991 
927 0.0036 0.0036 0 -3.92351e-06 -3.92351e-06 4.44126e-07 0.0392351 5.68371 13.5016 
967 0.1918 0.1918 0 0.000177649 0.000177649 1.01444e-06 2.96236 1185.17 1527.24 
1007 0.2258 0.2258 0 0.000183627 0.000183627 -1.25511e-05 3.54612 1271.72 1648.56 
1047 0.233 0.233 0 0.000188945 0.000188945 -3.58294e-07 3.69809 1338.05 1654.8 
1087 0.2642 0.2642 0 0.000196433 0.000196433 1.45428e-06 4.18011 1385.24 1825.37 
1127 0.2582 0.2582 0 0.000184759 0.000184759 -4.84312e-06 4.05681 1425.32 1856.35 
1167 0.289 0.289 0 0.000218141 0.000218141 8.92707e-06 4.49227 1496.4 1984.06 
1207 0.3046 0.3046 0 0.000232052 0.000232052 1.51685e-06 4.73798 1706.3 2353.87 
1247 0.3062 0.3062 0 0.000217179 0.000217179 4.35241e-06 4.71209 1553.3 2224.55 
8 2.1892 2.1892 0 0.0038965 0.0038965 2.95157e-06 38.965 10317.1 13969.1 
48 2.6076 2.6076 0 0.00427021 0.00427021 3.26861e-07 42.7021 8475.41 11808.9 
88 2.8056 2.8056 0 0.00445681 0.00445681 -3.18457e-06 44.5681 7984.49 11307.7 
128 2.8352 2.8352 0 0.00452632 0.00452632 -1.94611e-05 45.2632 7943.34 11312.3 
168 2.858 2.858 0 0.0045698 0.0045698 -2.41958e-06 45.698 7977.58 11245.9 
208 2.8432 2.8432 0 0.00458365 0.00458365 -3.93886e-06 45.8365 8358.18 11903.9 
248 2.684 2.684 0 0.00435723 0.00435723 -3.001e-05 43.5723 8369.42 11852.1 
288 2.3232 2.3232 0 0.00399013 0.00399013 -1.85204e-06 39.9013 9817.12 13534.8 
328 0.2934 0.2934 0 0.000204653 0.000204653 1.5235e-06 4.44987 1502.52 2160.86 
368 0.2996 0.2996 0 0.000220932 0.000220932 -4.39711e-06 4.64167 1659.22 2292.69 
408 0.2802 0.2802 0 0.000207856 0.000207856 -1.08281e-05 4.49633 1563 2004.58 
448 0.2672 0.2672 0 0.000192105 0.000192105 -1.19833e-05 4.17482 1329.42 1801.05 
488 0.269 0.269 0 0.000197305 0.000197305 3.6513e-06 4.33512 1501.27 1941.15 
528 0.2338 0.2338 0 0.000184122 0.000184122 4.70761e-06 3.86672 1315.45 1687.29 
568 0.2194 0.2194 0 0.00017264 0.00017264 -5.73711e-06 3.46723 1223.32 1532.78 
608 0.2064 0.2064 0 0.000182803 0.000182803 -3.7758e-06 3.26348 1243.77 1527.58 
648 0.0036 0.0036 0 -4.05918e-06 -4.05918e-06 -9.13765e-07 0.0405918 5.53717 9.97365 
688 0.0038 0.0038 0 -4.56403e-06 -4.56403e-06 -5.33512e-07 0.0456403 7.86566 16.4516 
728 0.0048 0.0048 0 -5.37875e-06 -5.37875e-06 -6.28049e-07 0.0537875 6.51535 12.6491 
768 0.0038 0.0038 0 -4.98463e-06 -4.98463e-06 1.14549e-07 0.0498463 7.43832 14.2913 
808 0.0042 0.0042 0 -4.86635e-06 -4.86635e-06 2.7966e-07 0.0486635 3.33258 12.3914 
848 0.0038 0.0038 0 -4.62679e-06 -4.62679e-06 -1.60986e-07 0.0462679 3.29977 10.9659 
888 0.0038 0.0038 0 -5.05704e-06 -5.05704e-06 4.77856e-08 0.0505704 4.61305 11.3516 
928 0.0032 0.0032 0 -3.14132e-06 -3.14132e-06 1.03064e-07 0.0314132 2.78372 8.64954 
968 0.1894 0.1894 0 0.00016748 0.00016748 4.48261e-06 3.03992 1142.25 1473.73 
1008 0.2124 0.2124 0 0.000167015 0.000167015 4.00685e-06 3.43537 1192.27 1555.82 
1048 0.2442 0.2442 0 0.000200561 0.000200561 7.59668e-06 3.78758 1481.16 1864.58 
1088 0.2492 0.2492 0 0.000180132 0.000180132 7.17078e-06 3.94798 1362.4 1751.09 
1128 0.2542 0.2542 0 0.000177504 0.000177504 -4.69162e-06 3.97124 1324.72 1713.59 
1168 0.2818 0.2818 0 0.000211727 0.000211727 9.88142e-06 4.47641 1524.27 2103.8 
1208 0.2818 0.2818 0 0.000219818 0.000219818 -5.6729e-06 4.38177 1567.04 2137.84 
1248 0.2946 0.2946 0 0.000202154 0.000202154 4.87095e-06 4.42734 1459.22 2052.95 
9 2.271 2.271 0 0.00405633 0.00405633 -1.02973e-05 40.5633 10874.3 14691.3 
49 2.6658 2.6658 0 0.00433269 0.00433269 2.94247e-05 43.3269 8566.95 12193.3 
89 2.7726 2.7726 0 0.00442288 0.00442288 2.39923e-06 44.2288 7867.81 11071.9 
129 2.866 2.866 0 0.00460628 0.00460628 -3.50055e-05 46.0628 8308.91 11576.1 
169 2.8334 2.8334 0 0.00448288 0.00448288 2.6642e-06 44.8288 7524.31 10839.7 
209 2.8054 2.8054 0 0.00449528 0.00449528 2.273e-06 44.9528 8206.97 11520.5 
249 2.6628 2.6628 0 0.00433006 0.00433006 -7.52818e-07 43.3006 8724.38 12164.4 
289 2.3432 2.3432 0 0.00404614 0.00404614 8.01157e-06 40.4614 9952.63 13580.6 
329 0.3006 0.3006 0 0.000207686 0.000207686 -8.8717e-06 4.56418 1609.86 2237.91 
369 0.294 0.294 0 0.000222592 0.000222592 -1.17819e-05 4.60921 1638.41 2181.29 
409 0.2688 0.2688 0 0.000188168 0.000188168 1.17242e-06 4.33543 1462.15 1928.56 
449 0.2694 0.2694 0 0.000203496 0.000203496 1.27921e-05 4.25736 1391.36 1833.68 
489 0.252 0.252 0 0.000174317 0.000174317 -8.07386e-06 4.02689 1323.75 1762.87 
529 0.253 0.253 0 0.000184193 0.000184193 2.19385e-07 3.96031 1340.23 1722.29 
569 0.217 0.217 0 0.000178317 0.000178317 1.42972e-06 3.43446 1264.56 1551.7 
609 0.1984 0.1984 0 0.000178757 0.000178757 -1.41211e-06 3.16254 1224.04 1541.95 
649 0.005 0.005 0 -5.96727e-06 -5.96727e-06 -1.44194e-06 0.0596727 11.9354 23.8468 
689 0.0032 0.0032 0 -4.01054e-06 -4.01054e-06 2.19345e-07 0.0401054 6.53136 7.43417 
729 0.0044 0.0044 0 -4.84492e-06 -4.84492e-06 -3.83469e-07 0.0484492 0.305316 7.68716 
769 0.004 0.004 0 -4.98985e-06 -4.98985e-06 2.25366e-07 0.0498985 7.59347 12.3132 
809 0.0036 0.0036 0 -4.05804e-06 -4.05804e-06 -5.29679e-07 0.0405804 3.96215 6.36913 
849 0.0042 0.0042 0 -5.32377e-06 -5.32377e-06 -7.81568e-07 0.0532377 4.35004 7.33854 
889 0.004 0.004 0 -5.44277e-06 -5.44277e-06 -1.1042e-06 0.0544277 8.37971 9.86137 
929 0.0044 0.0044 0 -5.34583e-06 -5.34583e-06 -1.15988e-06 0.0534583 4.50002 9.31583 
969 0.1946 0.1946 0 0.000182202 0.000182202 -4.03777e-07 3.12198 1221.09 1528.38 
1009 0.2222 0.2222 0 0.00017929 0.00017929 -1.20443e-05 3.46501 1239.89 1606.2 
1049 0.251 0.251 0 0.000183415 0.000183415 -2.85091e-06 3.99802 1395.11 1843.22 
1089 0.255 0.255 0 0.000195085 0.000195085 5.62992e-06 4.12954 1447.55 1886.61 
1129 0.27 0.27 0 0.000202101 0.000202101 2.47726e-06 4.25777 1474.17 1917.01 
1169 0.2778 0.2778 0 0.000199837 0.000199837 -3.94722e-06 4.32152 1443.52 1995.08 
1209 0.2808 0.2808 0 0.000206576 0.000206576 3.24555e-07 4.39061 1514.69 2041.22 
1249 0.3002 0.3002 0 0.000217938 0.000217938 8.96414e-06 4.58294 1608.5 2313.15 
10 2.2764 2.2764 0 0.00401526 0.00401526 -9.34366e-06 40.1526 10270.2 13978.1 
50 2.6678 2.6678 0 0.00434026 0.00434026 5.40818e-06 43.4026 8214.99 11715.4 
90 2.7906 2.7906 0 0.00444045 0.00444045 -3.65928e-06 44.4045 7988.96 11309 
130 2.8538 2.8538 0 0.00454615 0.00454615 -1.24887e-05 45.4615 7805.53 11144.5 
170 2.7938 2.7938 0 0.00442692 0.00442692 -1.31715e-05 44.2692 7521.68 10892.7 
210 2.7982 2.7982 0 0.00448393 0.00448393 9.94263e-06 44.8393 8145.13 11402.2 
250 2.6452 2.6452 0 0.00434998 0.00434998 -1.64426e-05 43.4998 8397.66 11797.2 
290 2.34 2.34 0 0.00404836 0.00404836 -1.75844e-08 40.4836 10136.2 14056.8 
330 0.3062 0.3062 0 0.00021682 0.00021682 -1.21314e-06 4.64436 1598.52 2270.24 
370 0.295 0.295 0 0.00021186 0.00021186 -5.58966e-06 4.65895 1519.67 2026.2 
410 0.2736 0.2736 0 0.000201351 0.000201351 -1.91078e-06 4.28677 1474.58 1977.01 
450 0.2788 0.2788 0 0.000209534 0.000209534 1.05209e-05 4.50569 1488.96 1958.23 
490 0.2574 0.2574 0 0.000184327 0.000184327 6.98811e-06 4.13825 1311.82 1734.32 
530 0.245 0.245 0 0.000183639 0.000183639 -4.84824e-06 3.89097 1338.68 1736.73 
570 0.218 0.218 0 0.000173657 0.000173657 -9.09211e-06 3.44341 1152.92 1459.18 
610 0.1832 0.1832 0 0.000167993 0.000167993 3.63896e-06 3.07223 1141.85 1456.19 
650 0.0036 0.0036 0 -4.23364e-06 -4.23364e-06 -2.72054e-07 0.0423364 12.026 22.7808 
690 0.0026 0.0026 0 -2.85827e-06 -2.85827e-06 8.90807e-07 0.0285827 2.9301 13.1767 
730 0.0048 0.0048 0 -5.67797e-06 -5.67797e-06 5.13763e-07 0.0567797 8.03816 18.4301 
770 0.0038 0.0038 0 -4.99333e-06 -4.99333e-06 3.67907e-07 0.0499333 7.10294 19.955 
810 0.0044 0.0044 0 -6.07727e-06 -6.07727e-06 -2.1412e-06 0.0607727 12.6378 26.5062 
850 0.0044 0.0044 0 -5.31014e-06 -5.31014e-06 -7.3229e-07 0.0531014 3.90675 8.88845 
890 0.0046 0.0046 0 -5.12557e-06 -5.12557e-06 3.74059e-07 0.0512557 13.4872 20.2174 
930 0.0044 0.0044 0 -5.20827e-06 -5.20827e-06 1.00195e-06 0.0520827 5.6403 9.54654 
970 0.1834 0.1834 0 0.00016438 0.00016438 3.67761e-06 2.87747 1042.7 1297.53 
1010 0.2174 0.2174 0 0.000170628 0.000170628 -1.11914e-06 3.40877 1161.82 1502.32 
1050 0.2376 0.2376 0 0.000189327 0.000189327 -1.7325e-06 3.73279 1405.31 1737.7 
1090 0.2722 0.2722 0 0.000204924 0.000204924 3.39961e-06 4.35281 1532.19 1992.1 
1130 0.2626 0.2626 0 0.000204922 0.000204922 -4.67847e-08 4.13546 1490.65 1908.11 
1170 0.2882 0.2882 0 0.000214927 0.000214927 -1.10069e-06 4.45777 1508.07 2020.7 
1210 0.297 0.297 0 0.000213015 0.000213015 -1.51146e-05 4.74212 1603.39 2187.98 
1250 0.2992 0.2992 0 0.000225703 0.000225703 5.89248e-09 4.53185 1640.27 2382.54 
11 2.2728 2.2728 0 0.00397746 0.00397746 2.24586e-05 39.7746 9961.21 13527.4 
51 2.6492 2.6492 0 0.00431189 0.00431189 2.24973e-05 43.1189 8711.18 12156.1 
91 2.7884 2.7884 0 0.00448018 0.00448018 -5.21342e-06 44.8018 8147.83 11579.8 
131 2.864 2.864 0 0.00454417 0.00454417 2.4146e-05 45.4417 8010.99 11339.8 
171 2.8834 2.8834 0 0.00460705 0.00460705 -3.89922e-06 46.0705 8040.96 11423.1 
211 2.7608 2.7608 0 0.00442279 0.00442279 -1.57612e-05 44.2279 8159.69 11521.2 
251 2.6478 2.6478 0 0.00432388 0.00432388 -2.38072e-06 43.2388 8539.49 11877.7 
291 2.26 2.26 0 0.00390527 0.00390527 8.30536e-07 39.0527 9840.7 13523.1 
331 0.3114 0.3114 0 0.000223861 0.000223861 1.1035e-05 4.90871 1634.63 2270.05 
371 0.2834 0.2834 0 0.000213504 0.000213504 -6.50969e-06 4.38657 1570.35 2103.22 
411 0.2696 0.2696 0 0.000205921 0.000205921 4.10178e-06 4.2397 1521 2014.96 
451 0.2606 0.2606 0 0.000188286 0.000188286 7.45089e-06 4.20073 1440 1882.5 
491 0.267 0.267 0 0.00020703 0.00020703 6.70238e-06 4.18981 1464.14 1906.43 
531 0.241 0.241 0 0.000182607 0.000182607 -9.03574e-06 3.8122 1288.88 1709.45 
571 0.2304 0.2304 0 0.000191684 0.000191684 -2.36062e-06 3.68848 1262.99 1609.78 
611 0.1896 0.1896 0 0.000186906 0.000186906 4.89272e-06 2.99563 1223.03 1537.97 
651 0.0044 0.0044 0 -5.1269e-06 -5.1269e-06 -6.83813e-07 0.051269 11.6074 17.3393 
691 0.0036 0.0036 0 -4.40712e-06 -4.40712e-06 5.1633e-08 0.0440712 5.03376 7.40799 
731 0.0034 0.0034 0 -3.77505e-06 -3.77505e-06 1.4018e-06 0.0377505 3.02882 6.64282 
771 0.0038 0.0038 0 -4.59466e-06 -4.59466e-06 2.82761e-07 0.0459466 9.90192 13.7974 
811 0.0042 0.0042 0 -4.6794e-06 -4.6794e-06 -5.49237e-07 0.046794 5.86541 11.2149 
851 0.0038 0.0038 0 -4.15941e-06 -4.15941e-06 1.0332e-06 0.0415941 5.78385 11.3243 
891 0.0044 0.0044 0 -5.46062e-06 -5.46062e-06 -1.09468e-07 0.0546062 2.93095 10.051 
931 0.0044 0.0044 0 -4.0291e-06 -4.0291e-06 -4.60685e-07 0.040291 3.38121 9.41564 
971 0.1898 0.1898 0 0.000163744 0.000163744 1.08974e-06 2.9951 1122.28 1395.67 
1011 0.2258 0.2258 0 0.000181564 0.000181564 7.31332e-06 3.62525 1237.03 1622.58 
1051 0.255 0.255 0 0.000186318 0.000186318 -5.02869e-06 4.03985 1424.6 1806.78 
1091 0.251 0.251 0 0.000185824 0.000185824 -1.99484e-06 3.92812 1350.76 1780.59 
1131 0.2614 0.2614 0 0.000191906 0.000191906 -1.17906e-06 4.18989 1383.22 1870.94 
1171 0.2934 0.2934 0 0.000208265 0.000208265 9.16151e-06 4.71868 1543.28 2115.36 
1211 0.2848 0.2848 0 0.000229686 0.000229686 -7.81792e-06 4.52783 1619.76 2167.42 
1251 0.3194 0.3194 0 0.000228254 0.000228254 -7.09369e-06 4.72244 1648.39 2342.95 
12 2.2866 2.2866 0 0.0039585 0.0039585 3.98962e-06 39.585 10150.3 13764.8 
52 2.663 2.663 0 0.00434131 0.00434131 -3.9427e-05 43.4131 8550.89 12004.2 
92 2.827 2.827 0 0.0044891 0.0044891 2.33093e-05 44.891 8171.97 11370.8 
132 2.8802 2.8802 0 0.00456727 0.00456727 7.11928e-05 45.6727 7974.48 11347.3 
172 2.8198 2.8198 0 0.0045066 0.0045066 4.57747e-05 45.066 7864.7 11178.2 
212 2.8204 2.8204 0 0.00451233 0.00451233 -2.64704e-05 45.1233 8331.76 11727.6 
252 2.6442 2.6442 0 0.00434304 0.00434304 -4.32149e-05 43.4304 8560.21 11937.7 
292 2.2878 2.2878 0 0.0040137 0.0040137 1.83824e-05 40.137 10453.5 14234.2 
332 0.3016 0.3016 0 0.000213959 0.000213959 2.80537e-06 4.58234 1502.06 2153.25 
372 0.3 0.3 0 0.00022316 0.00022316 5.44969e-06 4.70831 1643.91 2219.65 
412 0.2854 0.2854 0 0.000203617 0.000203617 -9.03248e-06 4.60448 1518.15 2078.67 
452 0.2708 0.2708 0 0.000200534 0.000200534 8.321e-06 4.4516 1462.63 1934.48 
492 0.2634 0.2634 0 0.000201895 0.000201895 9.27674e-06 4.17648 1437.74 1833.59 
532 0.2386 0.2386 0 0.000192889 0.000192889 -1.1119e-05 3.8095 1428.96 1787.14 
572 0.2282 0.2282 0 0.000188701 0.000188701 -3.90156e-06 3.70545 1341.3 1741.17 
612 0.187 0.187 0 0.000170921 0.000170921 2.10982e-07 3.01549 1101.88 1407.33 