ITEM: TIMESTEP
10000
ITEM: NUMBER OF SURFS
1272
ITEM: BOX BOUNDS oo rr pp
0 0.3
0 0.3
-0.5 0.5
ITEM: SURFS id f_2[1] f_2[2] f_2[3] f_2[4] f_2[5] f_2[6] f_2[7] f_2[8] f_2[9] 
1 0.8598 0.8598 0 0.000953637 0.000953637 8.32171e-07 38.1455 11073.7 15009.3 
41 4.3824 4.3824 0 0.00422608 0.00422608 1.28429e-05 42.2608 8005.74 11264.7 
81 4.6362 4.6362 0 0.00436676 0.00436676 1.35272e-05 43.6676 7426.99 10537.6 
121 4.7178 4.7178 0 0.00441967 0.00441967 -5.51529e-06 44.1967 7090.24 10166.1 
161 4.7906 4.7906 0 0.00448601 0.00448601 -2.43626e-06 44.8601 7176.36 10273.7 
201 4.6894 4.6894 0 0.00440973 0.00440973 -8.21791e-06 44.0973 7039.8 10173 
241 4.5378 4.5378 0 0.00434443 0.00434443 -6.07497e-06 43.4443 7708.78 10921.6 
281 4.131 4.131 0 0.00412392 0.00412392 -1.50603e-05 41.2392 8420.75 12036.9 
321 0.2684 0.2684 0 0.000107828 0.000107828 1.28512e-07 4.70842 1410.61 2143.83 
361 0.5172 0.5172 0 0.000213614 0.000213614 2.41839e-06 4.89184 1593.79 2255.84 
401 0.516 0.516 0 0.000206095 0.000206095 -2.6884e-06 4.83083 1519.46 2083.37 
441 0.5112 0.5112 0 0.000198071 0.000198071 -7.84896e-06 4.8567 1481.16 2018.15 
481 0.4758 0.4758 0 0.000189403 0.000189403 8.38936e-07 4.51023 1365.95 1881.89 
521 0.4574 0.4574 0 0.000186283 0.000186283 3.49002e-06 4.29896 1300.75 1692.58 
561 0.4414 0.4414 0 0.000182919 0.000182919 -6.67887e-06 4.19434 1281.29 1716.21 
601 0.3736 0.3736 0 0.000192424 0.000192424 -2.13914e-06 3.59855 1248.35 1613.54 
641 0.0094 0.0094 0 -6.31413e-06 -6.31413e-06 -2.75998e-07 0.0631413 8.73284 15.3033 
681 0.009 0.009 0 -6.82691e-06 -6.82691e-06 -2.4526e-07 0.0682691 13.0717 21.7405 
721 0.009 0.009 0 -7.61818e-06 -7.61818e-06 -3.1474e-07 0.0761818 5.59497 18.31 
761 0.0126 0.0126 0 -9.49049e-06 -9.49049e-06 1.70218e-06 0.0949049 9.08375 23.9065 
801 0.013 0.013 0 -1.07945e-05 -1.07945e-05 8.79883e-07 0.107945 15.8839 23.2785 
841 0.009 0.009 0 -7.0939e-06 -7.0939e-06 -5.45192e-07 0.070939 9.36667 15.7534 
881 0.0106 0.0106 0 -7.58012e-06 -7.58012e-06 6.83068e-07 0.0758012 4.27337 14.4124 
921 0.0074 0.0074 0 -5.26532e-06 -5.26532e-06 4.67047e-07 0.0526532 8.60075 10.473 
961 0.3446 0.3446 0 0.000184362 0.000184362 2.66617e-06 3.32493 1138.87 1466.06 
1001 0.4156 0.4156 0 0.000179483 0.000179483 -3.75985e-06 3.9638 1248.92 1642.71 
1041 0.4554 0.4554 0 0.000179485 0.000179485 2.04548e-06 4.32722 1283.7 1721.48 
1081 0.4794 0.4794 0 0.00018454 0.00018454 3.85057e-08 4.56539 1329.64 1812.4 
1121 0.4986 0.4986 0 0.000194535 0.000194535 3.45616e-06 4.77701 1444.92 1953.19 
1161 0.5136 0.5136 0 0.000212316 0.000212316 -6.73699e-06 4.85161 1552.67 2107.72 
1201 0.515 0.515 0 0.000206979 0.000206979 -3.07061e-06 4.80259 1520.87 2093.74 
1241 0.5164 0.5164 0 0.000208576 0.000208576 -1.16124e-06 4.71894 1471.22 2140.3 
2 0.8806 0.8806 0 0.00096622 0.00096622 1.46342e-06 38.6488 11405.4 15400 
42 4.371 4.371 0 0.00423454 0.00423454 3.96068e-06 42.3454 7914.94 11302.8 
82 4.6788 4.6788 0 0.00442528 0.00442528 1.50247e-05 44.2528 7442.25 10694.3 
122 4.7522 4.7522 0 0.00446163 0.00446163 -5.33908e-06 44.6163 7161.75 10257.6 
162 4.7746 4.7746 0 0.0044813 0.0044813 -3.40745e-05 44.813 7088.66 10185.5 
202 4.76 4.76 0 0.00449788 0.00449788 4.06089e-06 44.9788 7312.18 10447.7 
242 4.532 4.532 0 0.00434159 0.00434159 3.01028e-06 43.4159 7727.16 11002.6 
282 4.0228 4.0228 0 0.00401691 0.00401691 -2.92178e-06 40.1691 8583.04 11980.3 
322 0.5204 0.5204 0 0.000208814 0.000208814 7.8587e-07 4.6842 1507.69 2211.92 
362 0.5338 0.5338 0 0.000216011 0.000216011 5.14063e-06 4.99213 1562.31 2224.36 
402 0.5286 0.5286 0 0.000214892 0.000214892 1.4179e-07 4.99283 1604.25 2145.79 
442 0.4916 0.4916 0 0.000196489 0.000196489 3.54131e-06 4.63192 1445.65 1985.58 
482 0.4884 0.4884 0 0.000185662 0.000185662 5.44791e-08 4.63822 1364.5 1845.48 
522 0.4588 0.4588 0 0.000192506 0.000192506 -2.24744e-06 4.35705 1337.7 1775.16 
562 0.4454 0.4454 0 0.000187759 0.000187759 -2.37792e-06 4.26628 1334.21 1764.31 
602 0.3726 0.3726 0 0.000177744 0.000177744 3.07926e-06 3.6681 1187.56 1542.05 
642 0.0116 0.0116 0 -7.74205e-06 -7.74205e-06 -9.46027e-07 0.0774205 6.81533 19.9361 
682 0.0122 0.0122 0 -9.15318e-06 -9.15318e-06 -2.01901e-07 0.0915318 10.1796 25.0593 
722 0.0098 0.0098 0 -7.63681e-06 -7.63681e-06 -7.8353e-07 0.0763681 3.07449 12.4251 
762 0.0128 0.0128 0 -1.0054e-05 -1.0054e-05 -1.44609e-06 0.10054 13.1881 25.3638 
802 0.0092 0.0092 0 -7.04813e-06 -7.04813e-06 -6.17745e-07 0.0704813 9.01978 18.3834 
842 0.0128 0.0128 0 -9.8082e-06 -9.8082e-06 -8.75564e-08 0.098082 13.5195 23.7965 
882 0.0116 0.0116 0 -8.74871e-06 -8.74871e-06 -1.92869e-06 0.0874871 8.79417 18.6997 
922 0.0126 0.0126 0 -8.73509e-06 -8.73509e-06 1.17664e-06 0.0873509 13.3086 21.55 
962 0.3606 0.3606 0 0.000187359 0.000187359 9.03862e-06 3.54607 1218.59 1552.85 
1002 0.4158 0.4158 0 0.000183925 0.000183925 1.77106e-06 3.96455 1291.07 1673.53 
1042 0.447 0.447 0 0.000179834 0.000179834 -2.91828e-06 4.21985 1265.68 1674.47 
1082 0.4788 0.4788 0 0.0001942 0.0001942 -8.0118e-07 4.57484 1408.29 1881.69 
1122 0.4944 0.4944 0 0.000179467 0.000179467 -7.15079e-06 4.72324 1355.92 1865.53 
1162 0.5196 0.5196 0 0.000207289 0.000207289 -8.14541e-06 4.90893 1497.37 2071.51 
1202 0.5412 0.5412 0 0.000218219 0.000218219 -6.24488e-06 5.08521 1630.67 2255.74 
1242 0.5256 0.5256 0 0.000207168 0.000207168 8.16124e-06 4.78281 1510.53 2229.57 
3 1.7572 1.7572 0 0.00193087 0.00193087 -7.47104e-06 38.6174 10949 14892.2 
43 4.414 4.414 0 0.00423005 0.00423005 1.27781e-05 42.3005 7784.05 11075.1 
83 4.6988 4.6988 0 0.00445159 0.00445159 -2.1124e-05 44.5159 7509.13 10671.9 
123 4.7358 4.7358 0 0.0044354 0.0044354 4.74146e-06 44.354 7017.74 10120 
163 4.7846 4.7846 0 0.00448592 0.00448592 1.32666e-05 44.8592 7063.16 10271.5 
203 4.7292 4.7292 0 0.00445905 0.00445905 1.41153e-05 44.5905 7138.83 10291 
243 4.5394 4.5394 0 0.00433888 0.00433888 1.68529e-05 43.3888 7567.24 10846 
283 4.074 4.074 0 0.00409001 0.00409001 -1.52716e-07 40.9001 8610.24 12219.2 
323 0.5132 0.5132 0 0.000206983 0.000206983 -2.84379e-06 4.61384 1446 2138.51 
363 0.5372 0.5372 0 0.000232596 0.000232596 4.37447e-06 5.04724 1677.78 2326.5 
403 0.5196 0.5196 0 0.000211141 0.000211141 -5.35543e-06 4.91408 1578.79 2160.19 
443 0.4984 0.4984 0 0.000195694 0.000195694 -3.42775e-06 4.74745 1480.97 1944.65 
483 0.48 0.48 0 0.000197082 0.000197082 -4.52236e-06 4.58814 1423.27 1916.06 
523 0.4732 0.4732 0 0.000193737 0.000193737 9.15226e-07 4.51723 1367.83 1790.08 
563 0.4302 0.4302 0 0.000186957 0.000186957 -2.80947e-06 4.14819 1322.01 1713.8 
603 0.3768 0.3768 0 0.000185587 0.000185587 1.94773e-06 3.6405 1203.6 1539.32 
643 0.0096 0.0096 0 -7.06292e-06 -7.06292e-06 1.08829e-06 0.0706292 -0.875282 3.56874 
683 0.0114 0.0114 0 -8.80169e-06 -8.80169e-06 4.84701e-07 0.0880169 5.0209 21.0877 
723 0.0104 0.0104 0 -7.42211e-06 -7.42211e-06 -3.72597e-07 0.0742211 7.7291 17.8695 
763 0.011 0.011 0 -8.50379e-06 -8.50379e-06 1.35319e-06 0.0850379 11.0498 17.6616 
803 0.013 0.013 0 -9.81534e-06 -9.81534e-06 5.78274e-07 0.0981534 14.8598 22.1711 
843 0.0116 0.0116 0 -9.48043e-06 -9.48043e-06 -1.28451e-06 0.0948043 2.38273 10.5424 
883 0.0104 0.0104 0 -7.54704e-06 -7.54704e-06 1.39949e-07 0.0754704 6.92705 15.2562 
923 0.0116 0.0116 0 -7.90891e-06 -7.90891e-06 1.05251e-06 0.0790891 7.93625 17.1947 
963 0.3476 0.3476 0 0.000179718 0.000179718 2.79103e-08 3.30802 1114.29 1473.83 
1003 0.4236 0.4236 0 0.000184858 0.000184858 -2.26235e-06 4.06876 1234.69 1659.97 
1043 0.4388 0.4388 0 0.000170761 0.000170761 -1.7386e-06 4.19676 1226.55 1617.67 
1083 0.4666 0.4666 0 0.000177272 0.000177272 1.00339e-06 4.43081 1325.02 1781.18 
1123 0.4994 0.4994 0 0.00019295 0.00019295 -3.1579e-06 4.70799 1344.13 1839 
1163 0.4956 0.4956 0 0.000201117 0.000201117 -5.86107e-07 4.7536 1525.32 2046.97 
1203 0.532 0.532 0 0.000214898 0.000214898 8.4104e-06 4.93024 1539.72 2127.89 
1243 0.5198 0.5198 0 0.000207954 0.000207954 8.06722e-06 4.76407 1468.56 2138.06 
4 3.5476 3.5476 0 0.00385897 0.00385897 -1.4455e-06 38.5897 10564.9 14474.1 
44 4.4076 4.4076 0 0.00426575 0.00426575 4.99714e-06 42.6575 7929.22 11319.3 
84 4.6006 4.6006 0 0.00434586 0.00434586 5.77176e-07 43.4586 7161.07 10298.5 
124 4.743 4.743 0 0.00441446 0.00441446 8.62565e-06 44.1446 7071.64 10176.9 
164 4.7914 4.7914 0 0.00451423 0.00451423 -5.37595e-06 45.1423 7171 10398.3 
204 4.749 4.749 0 0.00446583 0.00446583 1.22516e-05 44.6583 7182 10307.1 
244 4.5214 4.5214 0 0.00432169 0.00432169 9.10787e-06 43.2169 7502.07 10641.8 
284 4.0286 4.0286 0 0.00403232 0.00403232 1.99056e-05 40.3232 8589.33 11964.3 
324 0.5124 0.5124 0 0.000203437 0.000203437 4.18256e-06 4.65752 1468.71 2143.21 
364 0.526 0.526 0 0.000220185 0.000220185 -5.08511e-06 4.94936 1538.9 2223.6 
404 0.5054 0.5054 0 0.000205761 0.000205761 -6.51717e-06 4.77968 1482.58 2065.47 
444 0.4874 0.4874 0 0.000194801 0.000194801 -2.49525e-06 4.60079 1429.9 1887.04 
484 0.483 0.483 0 0.000196202 0.000196202 -4.70054e-06 4.6611 1495.16 1994.92 
524 0.4678 0.4678 0 0.000178498 0.000178498 5.00066e-06 4.50377 1332.73 1753.03 
564 0.4392 0.4392 0 0.000185624 0.000185624 9.61984e-07 4.1065 1264.17 1681.4 
604 0.3672 0.3672 0 0.000187028 0.000187028 -6.39004e-06 3.56881 1248.23 1634.26 
644 0.0114 0.0114 0 -8.10838e-06 -8.10838e-06 3.35976e-07 0.0810838 5.72577 14.3997 
684 0.011 0.011 0 -8.99889e-06 -8.99889e-06 1.62546e-06 0.0899889 9.93621 16.7659 
724 0.012 0.012 0 -9.3415e-06 -9.3415e-06 3.92136e-07 0.093415 15.1994 23.2109 
764 0.0122 0.0122 0 -9.04687e-06 -9.04687e-06 1.27204e-06 0.0904687 17.7131 29.1335 
804 0.0136 0.0136 0 -1.03947e-05 -1.03947e-05 5.77028e-07 0.103947 8.70717 23.5397 
844 0.0114 0.0114 0 -8.94181e-06 -8.94181e-06 3.13372e-07 0.0894181 9.53703 20.9181 
884 0.0164 0.0164 0 -1.11783e-05 -1.11783e-05 9.8297e-07 0.111783 20.0749 38.6564 
924 0.0096 0.0096 0 -6.82501e-06 -6.82501e-06 1.65435e-08 0.0682501 5.1871 12.2244 
964 0.3612 0.3612 0 0.000188433 0.000188433 -4.59301e-06 3.52445 1225.24 1603.14 
1004 0.4268 0.4268 0 0.000181916 0.000181916 -9.88367e-07 4.01821 1254.02 1658.08 
1044 0.463 0.463 0 0.000191943 0.000191943 -3.219e-06 4.45756 1339.4 1725.74 
1084 0.4686 0.4686 0 0.000197144 0.000197144 -3.23109e-07 4.54982 1431.9 1920.03 
1124 0.4906 0.4906 0 0.00018754 0.00018754 -3.03765e-06 4.66145 1399.68 1887.91 
1164 0.5186 0.5186 0 0.000199729 0.000199729 7.99894e-06 4.89028 1441.91 1993.77 
1204 0.5348 0.5348 0 0.000227838 0.000227838 7.00096e-07 5.00026 1599.22 2280.34 
1244 0.5322 0.5322 0 0.000215823 0.000215823 -4.73831e-06 4.84905 1570.62 2308.94 
5 3.5452 3.5452 0 0.00381555 0.00381555 -3.45739e-05 38.1555 10138.2 13955.9 
45 4.4542 4.4542 0 0.00428735 0.00428735 -2.42397e-05 42.8735 7821.3 11130.3 
85 4.6654 4.6654 0 0.00443717 0.00443717 -2.92549e-05 44.3717 7398.46 10697.3 
125 4.7634 4.7634 0 0.00448368 0.00448368 -9.61933e-06 44.8368 7154.77 10271.3 
165 4.817 4.817 0 0.0045156 0.0045156 -1.28935e-05 45.156 7198.98 10357.9 
205 4.7208 4.7208 0 0.00443208 0.00443208 7.58908e-06 44.3208 6990.86 10224.6 
245 4.5082 4.5082 0 0.00430911 0.00430911 -1.21633e-07 43.0911 7545.14 10770.1 
285 4.013 4.013 0 0.00405097 0.00405097 -1.62556e-05 40.5097 8750.92 12309.1 
325 0.5254 0.5254 0 0.000218301 0.000218301 -1.64284e-06 4.7278 1550.72 2258.17 
365 0.5232 0.5232 0 0.000214925 0.000214925 -5.23086e-06 4.8759 1545.61 2154.91 
405 0.5116 0.5116 0 0.000210862 0.000210862 -3.73733e-06 4.84632 1527.75 2064.93 
445 0.501 0.501 0 0.000194023 0.000194023 6.44989e-06 4.6939 1415.18 1914.68 
485 0.4704 0.4704 0 0.000181718 0.000181718 2.85114e-06 4.55631 1329.49 1756.06 
525 0.4602 0.4602 0 0.000188978 0.000188978 1.42204e-06 4.32313 1312.86 1769.79 
565 0.4414 0.4414 0 0.000188529 0.000188529 -7.1494e-06 4.25043 1339.77 1727.31 
605 0.3582 0.3582 0 0.000177192 0.000177192 -4.28457e-06 3.46293 1162.06 1497.13 
645 0.0118 0.0118 0 -8.26246e-06 -8.26246e-06 4.92406e-07 0.0826246 7.77338 14.7074 
685 0.0116 0.0116 0 -8.35188e-06 -8.35188e-06 5.69904e-07 0.0835188 7.01036 16.7073 
725 0.0116 0.0116 0 -8.53876e-06 -8.53876e-06 2.76576e-07 0.0853876 10.9922 24.3367 
765 0.011 0.011 0 -8.20023e-06 -8.20023e-06 1.19039e-06 0.0820023 14.2122 28.3158 
805 0.0136 0.0136 0 -1.01946e-05 -1.01946e-05 -9.93589e-07 0.101946 12.5395 24.9359 
845 0.0118 0.0118 0 -8.68554e-06 -8.68554e-06 1.13145e-06 0.0868554 12.9365 18.7868 
885 0.0112 0.0112 0 -8.26535e-06 -8.26535e-06 -7.55705e-07 0.0826535 7.82074 13.6062 
925 0.0102 0.0102 0 -7.08035e-06 -7.08035e-06 1.33543e-06 0.0708035 7.636 18.3689 
965 0.3528 0.3528 0 0.000181548 0.000181548 2.11464e-06 3.35792 1169.31 1518.04 
1005 0.4034 0.4034 0 0.000170934 0.000170934 -7.9238e-06 3.83093 1176.3 1527.63 
1045 0.4672 0.4672 0 0.000181356 0.000181356 -1.22167e-06 4.42546 1271.41 1704.51 
1085 0.4864 0.4864 0 0.000194301 0.000194301 -9.66514e-06 4.66359 1455.99 1927.14 
1125 0.5016 0.5016 0 0.000195222 0.000195222 1.28786e-06 4.77976 1474.24 1955.27 
1165 0.5186 0.5186 0 0.000209394 0.000209394 4.66162e-07 4.92902 1558.94 2159.8 
1205 0.513 0.513 0 0.000202718 0.000202718 -6.57488e-06 4.91208 1470.38 2081.72 
1245 0.5314 0.5314 0 0.000207463 0.000207463 1.37487e-06 4.85955 1458.95 2156.65 
6 3.6052 3.6052 0 0.00381216 0.00381216 -2.00763e-06 38.1216 9942.81 13705.1 
46 4.4528 4.4528 0 0.00429812 0.00429812 1.01586e-05 42.9812 8013.27 11316.9 
86 4.6408 4.6408 0 0.0044095 0.0044095 -1.59828e-05 44.095 7391.25 10618.3 
126 4.7266 4.7266 0 0.00443884 0.00443884 6.44294e-06 44.3884 7165.74 10182.7 
166 4.775 4.775 0 0.00447048 0.00447048 1.81406e-05 44.7048 7277.32 10449.1 
206 4.7098 4.7098 0 0.00443957 0.00443957 1.73224e-05 44.3957 7189.37 10347.5 
246 4.523 4.523 0 0.00432941 0.00432941 -8.47459e-06 43.2941 7683.41 10842.2 
286 3.9214 3.9214 0 0.00393718 0.00393718 1.62963e-05 39.3718 8581.45 11915.2 
326 0.5194 0.5194 0 0.000213752 0.000213752 6.99593e-06 4.68716 1557.2 2269.24 
366 0.5322 0.5322 0 0.00022027 0.00022027 7.96722e-06 4.98359 1646.86 2300.93 
406 0.4958 0.4958 0 0.000209963 0.000209963 1.0047e-05 4.61592 1472.14 1975.96 
446 0.5032 0.5032 0 0.000204118 0.000204118 -2.08502e-06 4.78141 1453.92 1936.46 
486 0.4756 0.4756 0 0.00019136 0.00019136 1.8814e-07 4.58127 1407.3 1889.24 
526 0.4694 0.4694 0 0.000197258 0.000197258 -1.39209e-06 4.40918 1348.25 1800.5 
566 0.4306 0.4306 0 0.000182051 0.000182051 -2.3546e-06 4.12136 1316.16 1689.82 
606 0.354 0.354 0 0.000179293 0.000179293 -1.12123e-05 3.40533 1162.77 1510.59 
646 0.0118 0.0118 0 -8.61145e-06 -8.61145e-06 4.81879e-07 0.0861145 16.6353 25.0283 
686 0.0088 0.0088 0 -6.35529e-06 -6.35529e-06 -4.19072e-07 0.0635529 6.87856 14.0242 
726 0.0126 0.0126 0 -9.58473e-06 -9.58473e-06 2.04607e-07 0.0958473 10.8362 22.8194 
766 0.012 0.012 0 -9.79033e-06 -9.79033e-06 -1.15263e-06 0.0979033 8.19272 21.566 
806 0.0082 0.0082 0 -6.48715e-06 -6.48715e-06 -6.96273e-07 0.0648715 10.5409 16.9531 
846 0.0092 0.0092 0 -6.45412e-06 -6.45412e-06 -2.08228e-07 0.0645412 10.4551 15.5279 
886 0.0098 0.0098 0 -7.12304e-06 -7.12304e-06 -1.80574e-07 0.0712304 15.0192 24.883 
926 0.0114 0.0114 0 -7.82015e-06 -7.82015e-06 8.12139e-07 0.0782015 5.62606 16.1087 
966 0.3626 0.3626 0 0.000185893 0.000185893 -9.98108e-07 3.48843 1270.88 1587.81 
1006 0.4164 0.4164 0 0.000186142 0.000186142 -6.10754e-06 4.06929 1284.25 1661.78 
1046 0.4642 0.4642 0 0.000190887 0.000190887 1.77951e-06 4.42319 1402.58 1833.86 
1086 0.4684 0.4684 0 0.000196803 0.000196803 -4.11205e-06 4.4831 1400.91 1853.45 
1126 0.4854 0.4854 0 0.00018752 0.00018752 8.27277e-06 4.55302 1402.29 1884.48 
1166 0.4968 0.4968 0 0.000202914 0.000202914 4.98773e-06 4.70176 1461.02 1971.65 
1206 0.5172 0.5172 0 0.000210359 0.000210359 -1.46593e-07 4.916 1564.93 2209.55 
1246 0.5216 0.5216 0 0.000202311 0.000202311 3.73022e-06 4.73435 1467.09 2169.73 
7 3.6364 3.6364 0 0.00384707 0.00384707 1.80321e-06 38.4707 9875.21 13589.4 
47 4.4208 4.4208 0 0.00424383 0.00424383 4.6694e-06 42.4383 7686.81 11005.6 
87 4.701 4.701 0 0.00443195 0.00443195 -2.95877e-05 44.3195 7260.19 10454.5 
127 4.8178 4.8178 0 0.00450551 0.00450551 1.45581e-05 45.0551 6914.21 10113.4 
167 4.7366 4.7366 0 0.00443125 0.00443125 3.54272e-06 44.3125 7010.09 10095.7 
207 4.6778 4.6778 0 0.00441507 0.00441507 -1.10935e-05 44.1507 7331.15 10505.8 
247 4.5102 4.5102 0 0.00429206 0.00429206 3.61732e-06 42.9206 7557.72 10874.7 
287 3.9576 3.9576 0 0.0039935 0.0039935 4.79273e-06 39.935 8812.72 12436.2 
327 0.5294 0.5294 0 0.000214742 0.000214742 -2.17027e-06 4.8058 1485.15 2180.55 
367 0.5194 0.5194 0 0.000205693 0.000205693 1.54713e-05 4.93411 1549.43 2152.9 
407 0.518 0.518 0 0.00019575 0.00019575 -2.87964e-06 4.90823 1462.97 2032.77 
447 0.4874 0.4874 0 0.000184645 0.000184645 4.374e-07 4.55482 1351.06 1803.44 
487 0.4908 0.4908 0 0.000194082 0.000194082 6.11331e-06 4.64035 1384.53 1894.33 
527 0.4712 0.4712 0 0.000193174 0.000193174 6.87043e-06 4.50026 1359.2 1809.14 
567 0.4172 0.4172 0 0.000191663 0.000191663 -3.78296e-06 4.07039 1318.61 1769.68 
607 0.377 0.377 0 0.000193651 0.000193651 6.35778e-06 3.63137 1266.14 1631.84 
647 0.0098 0.0098 0 -6.97616e-06 -6.97616e-06 4.01118e-07 0.0697616 7.36025 17.5213 
687 0.01 0.01 0 -7.17714e-06 -7.17714e-06 1.48897e-07 0.0717714 13.8869 22.6998 
727 0.0094 0.0094 0 -6.25965e-06 -6.25965e-06 5.71762e-07 0.0625965 9.37343 18.4698 
767 0.0108 0.0108 0 -7.99721e-06 -7.99721e-06 8.33459e-07 0.0799721 5.25686 11.4163 
807 0.0108 0.0108 0 -7.79184e-06 -7.79184e-06 -5.31975e-07 0.0779184 10.8661 26.3469 
847 0.0142 0.0142 0 -1.18526e-05 -1.18526e-05 -7.05716e-07 0.118526 14.7718 24.6473 
887 0.0096 0.0096 0 -7.22294e-06 -7.22294e-06 -1.40779e-06 0.0722294 7.59941 14.6854 
927 0.011 0.011 0 -7.58188e-06 -7.58188e-06 -1.85006e-06 0.0758188 11.372 25.1057 
967 0.3536 0.3536 0 0.000177044 0.000177044 -9.95965e-07 3.41027 1179.16 1517.63 
1007 0.4174 0.4174 0 0.000177252 0.000177252 -2.52422e-06 4.00397 1296.03 1681.12 
1047 0.4518 0.4518 0 0.000181652 0.000181652 2.5059e-06 4.32284 1328.18 1770.69 
1087 0.4924 0.4924 0 0.000197703 0.000197703 -3.68281e-06 4.75368 1400.68 1896.75 
1127 0.4998 0.4998 0 0.000209461 0.000209461 1.04896e-05 4.81282 1520.16 2059.04 
1167 0.5168 0.5168 0 0.000213979 0.000213979 -3.41798e-07 4.88978 1543.49 2119.12 
1207 0.5364 0.5364 0 0.000221372 0.000221372 7.88579e-07 5.01723 1607.2 2221.46 
1247 0.5372 0.5372 0 0.000211042 0.000211042 -9.37469e-09 4.89942 1491.93 2175.1 
8 3.7036 3.7036 0 0.00386391 0.00386391 -8.53587e-06 38.6391 9563.06 13157.8 
48 4.4242 4.4242 0 0.00425162 0.00425162 4.36526e-07 42.5162 7706.17 10859.5 
88 4.6792 4.6792 0 0.00444511 0.00444511 3.90039e-06 44.4511 7370.31 10477.2 
128 4.7614 4.7614 0 0.00445272 0.00445272 -3.70849e-06 44.5272 7094.49 10230.4 
168 4.7544 4.7544 0 0.00445595 0.00445595 1.27007e-05 44.5595 6923.13 10023.8 
208 4.6134 4.6134 0 0.00437046 0.00437046 6.72833e-06 43.7046 7207.94 10399.2 
248 4.4794 4.4794 0 0.00429003 0.00429003 -1.02047e-05 42.9003 7619.55 10974.1 
288 3.9208 3.9208 0 0.00397747 0.00397747 1.1757e-05 39.7747 8973.86 12640 
328 0.5302 0.5302 0 0.000203507 0.000203507 -3.67592e-06 4.77306 1488.8 2216.07 
368 0.5228 0.5228 0 0.000206842 0.000206842 3.69519e-06 4.9387 1547.2 2206.28 
408 0.5238 0.5238 0 0.000214617 0.000214617 -1.74619e-05 5.02794 1497.02 2075.15 
448 0.4982 0.4982 0 0.000200837 0.000200837 7.01215e-07 4.76544 1516.5 1991.68 
488 0.4668 0.4668 0 0.000187761 0.000187761 9.24639e-06 4.43357 1328.88 1738.37 
528 0.4542 0.4542 0 0.00018211 0.00018211 -9.42708e-06 4.35508 1329.67 1774.9 
568 0.4234 0.4234 0 0.0001836 0.0001836 3.30005e-06 4.12271 1297.2 1679.87 
608 0.3548 0.3548 0 0.000178999 0.000178999 -5.52323e-06 3.39735 1187.44 1534.91 
648 0.0118 0.0118 0 -8.42096e-06 -8.42096e-06 9.09049e-07 0.0842096 12.141 19.5496 
688 0.0106 0.0106 0 -7.91962e-06 -7.91962e-06 3.01742e-07 0.0791962 8.57404 18.0468 
728 0.0118 0.0118 0 -9.12991e-06 -9.12991e-06 -3.39816e-07 0.0912991 16.4889 28.104 
768 0.0098 0.0098 0 -7.72748e-06 -7.72748e-06 -6.14612e-07 0.0772748 8.44238 15.899 
808 0.0104 0.0104 0 -7.93331e-06 -7.93331e-06 -1.22536e-07 0.0793331 16.208 23.5748 
848 0.0114 0.0114 0 -7.55439e-06 -7.55439e-06 -4.69282e-07 0.0755439 7.16569 17.1109 
888 0.0108 0.0108 0 -8.02365e-06 -8.02365e-06 2.58077e-07 0.0802365 9.41461 16.2026 
928 0.0076 0.0076 0 -4.85731e-06 -4.85731e-06 -1.17031e-06 0.0485731 8.30112 12.9526 
968 0.3756 0.3756 0 0.000192347 0.000192347 5.10936e-06 3.60999 1255.03 1625.92 
1008 0.426 0.426 0 0.000182895 0.000182895 -9.54452e-07 4.08018 1278.51 1656.52 
1048 0.4638 0.4638 0 0.000188372 0.000188372 -5.97161e-07 4.39965 1306.32 1764.03 
1088 0.4788 0.4788 0 0.000197915 0.000197915 -7.95607e-07 4.6357 1443.9 1911.55 
1128 0.5022 0.5022 0 0.000201475 0.000201475 -3.77555e-06 4.82211 1495.68 1984.95 
1168 0.5038 0.5038 0 0.000204744 0.000204744 5.38825e-06 4.74771 1537.57 2108.96 
1208 0.528 0.528 0 0.000216933 0.000216933 2.46306e-06 4.92988 1585.29 2211.9 
1248 0.5502 0.5502 0 0.000210399 0.000210399 -5.31775e-06 4.95677 1542.21 2289.37 
9 3.7428 3.7428 0 0.00390797 0.00390797 -7.1915e-07 39.0797 9601.07 13390.9 
49 4.481 4.481 0 0.00429879 0.00429879 -1.0428e-05 42.9879 7767.93 11156.3 
89 4.6842 4.6842 0 0.00440719 0.00440719 1.70818e-05 44.0719 7351.8 10451.9 
129 4.7794 4.7794 0 0.00449702 0.00449702 5.57175e-06 44.9702 7262.34 10362.2 
169 4.7642 4.7642 0 0.00448507 0.00448507 -8.08778e-06 44.8507 7154.35 10240.6 
209 4.722 4.722 0 0.00445987 0.00445987 -3.75962e-06 44.5987 7430.22 10609.3 
249 4.458 4.458 0 0.00427653 0.00427653 -3.92795e-06 42.7653 7772.36 11036.1 
289 3.9084 3.9084 0 0.00396413 0.00396413 6.71042e-06 39.6413 9022.86 12499 
329 0.524 0.524 0 0.000215713 0.000215713 -2.48506e-06 4.79152 1461.04 2187.27 
369 0.5224 0.5224 0 0.00020898 0.00020898 5.9923e-06 4.88042 1508.18 2154.91 
409 0.5208 0.5208 0 0.000214368 0.000214368 -1.4941e-05 4.90721 1538.94 2080.4 
449 0.5 0.5 0 0.000200745 0.000200745 -5.97326e-06 4.76089 1523.6 2051.51 
489 0.4944 0.4944 0 0.000199758 0.000199758 -3.9317e-06 4.72962 1467.61 1960.57 
529 0.4648 0.4648 0 0.000191611 0.000191611 9.59404e-06 4.42098 1386.91 1824.73 
569 0.4288 0.4288 0 0.000189185 0.000189185 1.76208e-06 4.12692 1368.29 1776.94 
609 0.3642 0.3642 0 0.000183806 0.000183806 -3.11657e-06 3.54588 1261 1588.83 
649 0.011 0.011 0 -8.37463e-06 -8.37463e-06 -5.64627e-07 0.0837463 8.15595 13.2798 
689 0.0094 0.0094 0 -6.70733e-06 -6.70733e-06 -1.88093e-09 0.0670733 6.77414 17.5038 
729 0.009 0.009 0 -7.16334e-06 -7.16334e-06 -3.17839e-07 0.0716334 11.744 21.5523 
769 0.013 0.013 0 -9.74589e-06 -9.74589e-06 -8.93247e-07 0.0974589 10.6488 20.7487 
809 0.0116 0.0116 0 -9.03577e-06 -9.03577e-06 5.62546e-08 0.0903577 15.2177 28.6654 
849 0.0152 0.0152 0 -1.19942e-05 -1.19942e-05 3.58644e-07 0.119942 14.9014 26.8458 
889 0.0102 0.0102 0 -8.56142e-06 -8.56142e-06 -6.60208e-07 0.0856142 12.0497 26.2679 
929 0.0098 0.0098 0 -6.78168e-06 -6.78168e-06 1.84144e-06 0.0678168 11.0169 17.9221 
969 0.3752 0.3752 0 0.000186874 0.000186874 -6.07075e-06 3.58794 1249.56 1625.58 
1009 0.4402 0.4402 0 0.000190355 0.000190355 5.52887e-06 4.23852 1352.06 1789.54 
1049 0.4486 0.4486 0 0.000180823 0.000180823 -7.00973e-06 4.25365 1317.42 1762.38 
1089 0.4776 0.4776 0 0.00019254 0.00019254 6.02691e-06 4.56811 1470.47 1905.41 
1129 0.4898 0.4898 0 0.000191518 0.000191518 -1.41351e-06 4.6147 1416.38 1920.98 
1169 0.5132 0.5132 0 0.000203825 0.000203825 2.64025e-06 4.85084 1461.73 2012.94 
1209 0.5356 0.5356 0 0.000237355 0.000237355 1.04929e-06 4.98953 1695.66 2321.98 
1249 0.5236 0.5236 0 0.000214218 0.000214218 -6.05051e-07 4.65366 1471.06 2184.88 
10 3.7534 3.7534 0 0.00387149 0.00387149 -5.02307e-06 38.7149 9199.09 12833.2 
50 4.4248 4.4248 0 0.00424386 0.00424386 1.75167e-05 42.4386 7565.72 10768.1 
90 4.6718 4.6718 0 0.00440549 0.00440549 -4.00412e-07 44.0549 7237.56 10321.3 
130 4.73 4.73 0 0.00443067 0.00443067 -1.65077e-05 44.3067 7193.3 10405.1 
170 4.8076 4.8076 0 0.00450298 0.00450298 1.02881e-05 45.0298 7308.42 10532.9 
210 4.7172 4.7172 0 0.0044483 0.0044483 -5.00134e-06 44.483 7404.99 10569.7 
250 4.4912 4.4912 0 0.00429509 0.00429509 -1.32223e-05 42.9509 7718.74 10915.3 
290 3.8142 3.8142 0 0.00390467 0.00390467 -2.35359e-05 39.0467 8828.15 12320 
330 0.5334 0.5334 0 0.000216682 0.000216682 -4.68779e-06 4.89815 1545.88 2287.92 
370 0.525 0.525 0 0.000218844 0.000218844 8.65029e-06 5.03505 1633.03 2274.67 
410 0.5028 0.5028 0 0.000200866 0.000200866 -2.9953e-06 4.77485 1480.99 1934.87 
450 0.4902 0.4902 0 0.000190172 0.000190172 -7.88962e-06 4.63351 1381.73 1855.09 
490 0.4696 0.4696 0 0.000194865 0.000194865 4.78113e-06 4.50185 1390 1839.44 
530 0.4676 0.4676 0 0.000186613 0.000186613 -2.63512e-07 4.52459 1370.21 1780.87 
570 0.4288 0.4288 0 0.000188596 0.000188596 5.08556e-06 4.11893 1369.79 1756.86 
610 0.362 0.362 0 0.000181151 0.000181151 -1.0318e-06 3.52427 1196.65 1574.04 
650 0.0074 0.0074 0 -5.01166e-06 -5.01166e-06 3.15279e-07 0.0501166 3.75976 15.7453 
690 0.0094 0.0094 0 -7.40701e-06 -7.40701e-06 -1.08178e-06 0.0740701 7.84709 15.0651 
730 0.0084 0.0084 0 -6.13912e-06 -6.13912e-06 9.46598e-07 0.0613912 2.17049 6.56848 
770 0.0102 0.0102 0 -9.02133e-06 -9.02133e-06 -1.13727e-06 0.0902133 10.3117 24.6796 
810 0.015 0.015 0 -1.17101e-05 -1.17101e-05 7.92107e-07 0.117101 12.8081 23.8167 
850 0.0116 0.0116 0 -8.17253e-06 -8.17253e-06 -8.0565e-07 0.0817253 7.10956 21.0521 
890 0.0106 0.0106 0 -8.27165e-06 -8.27165e-06 -9.90204e-07 0.0827165 15.9341 22.356 
930 0.008 0.008 0 -4.95477e-06 -4.95477e-06 -4.73759e-07 0.0495477 6.7589 16.7828 
970 0.3842 0.3842 0 0.000179327 0.000179327 -6.62199e-06 3.73596 1198.47 1551.82 
1010 0.4424 0.4424 0 0.000183565 0.000183565 -1.07879e-06 4.29753 1276.37 1674.61 
1050 0.4508 0.4508 0 0.000181289 0.000181289 3.44304e-06 4.23556 1285.89 1662.65 
1090 0.4794 0.4794 0 0.000186795 0.000186795 2.80761e-06 4.49478 1337.13 1793.16 
1130 0.505 0.505 0 0.000203931 0.000203931 -1.28172e-06 4.83347 1474.52 1994.32 
1170 0.4964 0.4964 0 0.000195251 0.000195251 6.0249e-06 4.78409 1524.01 2092.56 
1210 0.514 0.514 0 0.000213011 0.000213011 -3.44897e-06 4.80644 1516.93 2119.56 
1250 0.5216 0.5216 0 0.000202327 0.000202327 2.23052e-06 4.73295 1435.25 2133.56 
11 3.7472 3.7472 0 0.00385504 0.00385504 2.09497e-05 38.5504 9245.26 12840.5 
51 4.556 4.556 0 0.00435556 0.00435556 -1.63602e-05 43.5556 7746.29 11250.4 
91 4.6516 4.6516 0 0.00437895 0.00437895 -4.86488e-06 43.7895 7365.04 10451.7 
131 4.764 4.764 0 0.00446104 0.00446104 -2.68216e-06 44.6104 7091.3 10183.1 
171 4.7528 4.7528 0 0.00445167 0.00445167 -5.76817e-06 44.5167 7097.12 10232.2 
211 4.6936 4.6936 0 0.00441549 0.00441549 -1.58525e-06 44.1549 7266.89 10423.6 
251 4.5022 4.5022 0 0.00433058 0.00433058 1.08596e-05 43.3058 7714.02 11083.2 
291 3.8156 3.8156 0 0.00392722 0.00392722 9.34981e-06 39.2722 9079.89 12698.6 
331 0.528 0.528 0 0.000207396 0.000207396 -1.89574e-06 4.87799 1512.71 2136.04 
371 0.5316 0.5316 0 0.000217386 0.000217386 7.79541e-06 5.05695 1615.38 2204.08 
411 0.5196 0.5196 0 0.000214962 0.000214962 3.32134e-06 4.92287 1580.99 2157.33 
451 0.5026 0.5026 0 0.000199937 0.000199937 1.71565e-06 4.70933 1455.59 1988.19 
491 0.4944 0.4944 0 0.000193741 0.000193741 -2.03232e-06 4.70539 1381.12 1838.7 
531 0.4424 0.4424 0 0.000184873 0.000184873 -6.75949e-06 4.23042 1262.02 1696.94 
571 0.4338 0.4338 0 0.000179128 0.000179128 2.33593e-06 4.18743 1302.87 1720.53 
611 0.3568 0.3568 0 0.000184773 0.000184773 2.35697e-06 3.43498 1220.31 1546.04 
651 0.011 0.011 0 -7.38211e-06 -7.38211e-06 7.75541e-07 0.0738211 7.62483 14.1464 
691 0.0106 0.0106 0 -7.51764e-06 -7.51764e-06 -1.09924e-06 0.0751764 14.265 25.5431 
731 0.011 0.011 0 -9.05153e-06 -9.05153e-06 1.09695e-06 0.0905153 12.9711 21.1449 
771 0.0114 0.0114 0 -9.4855e-06 -9.4855e-06 9.85955e-07 0.094855 9.46321 17.2418 
811 0.0118 0.0118 0 -8.08212e-06 -8.08212e-06 1.01218e-06 0.0808212 9.53392 19.6152 
851 0.0136 0.0136 0 -1.01385e-05 -1.01385e-05 1.04995e-07 0.101385 15.0528 32.4884 
891 0.0134 0.0134 0 -1.10245e-05 -1.10245e-05 5.25581e-07 0.110245 11.2614 23.0532 
931 0.0118 0.0118 0 -9.3023e-06 -9.3023e-06 -9.80303e-07 0.093023 7.9098 21.7674 
971 0.3706 0.3706 0 0.000190432 0.000190432 3.88437e-06 3.61089 1288.81 1619.56 
1011 0.4234 0.4234 0 0.000192943 0.000192943 6.7978e-06 4.13717 1326.35 1739.29 
1051 0.4606 0.4606 0 0.000191205 0.000191205 -5.38488e-06 4.33364 1361.38 1820.68 
1091 0.4828 0.4828 0 0.000188631 0.000188631 -5.52543e-06 4.49526 1352.38 1827.94 
1131 0.494 0.494 0 0.000206254 0.000206254 -1.27245e-06 4.65109 1531.79 2055.27 
1171 0.527 0.527 0 0.000218727 0.000218727 -3.7218e-06 5.041 1612.69 2261.84 
1211 0.4952 0.4952 0 0.000195674 0.000195674 -3.90173e-06 4.62643 1439.29 2032.91 
1251 0.5314 0.5314 0 0.000205909 0.000205909 -9.84374e-06 4.7256 1369.14 2080.02 
12 3.8804 3.8804 0 0.00396834 0.00396834 7.41052e-06 39.6834 9210.72 12770.8 
52 4.4794 4.4794 0 0.00430402 0.00430402 -2.6651e-06 43.0402 7622.31 10896.3 
92 4.682 4.682 0 0.00438458 0.00438458 -1.62744e-05 43.8458 7070.09 10185.4 
132 4.8112 4.8112 0 0.00452332 0.00452332 9.13559e-06 45.2332 7254.6 10353.1 
172 4.7724 4.7724 0 0.0044817 0.0044817 -1.72594e-05 44.817 7142.4 10411 
212 4.6818 4.6818 0 0.00442318 0.00442318 -6.37933e-06 44.2318 7268.28 10433.1 
252 4.4072 4.4072 0 0.00424936 0.00424936 -1.33564e-05 42.4936 7695.36 10876.2 
292 3.7196 3.7196 0 0.00381188 0.00381188 1.11771e-05 38.1188 8909.6 12432.4 
332 0.5166 0.5166 0 0.00021527 0.00021527 1.88309e-06 4.71546 1556.72 2255.41 
372 0.531 0.531 0 0.000219986 0.000219986 6.96307e-06 5.02367 1650.69 2278.61 
412 0.504 0.504 0 0.000209084 0.000209084 2.89179e-06 4.72455 1501.01 2042.35 
452 0.4878 0.4878 0 0.000179097 0.000179097 -6.3341e-06 4.65629 1365.99 1870.62 
492 0.4796 0.4796 0 0.000192844 0.000192844 -3.91912e-06 4.6064 1385.92 1862.19 
532 0.4508 0.4508 0 0.000177592 0.000177592 -3.28157e-06 4.28735 1327.77 1776.86 
572 0.4128 0.4128 0 0.000188932 0.000188932 2.68551e-06 4.01295 1295.57 1692.79 
612 0.341 0.341 0 0.000181838 0.000181838 3.65188e-06 3.31435 1240.55 1553.7 