ITEM: TIMESTEP
10000
ITEM: NUMBER OF SURFS
1272
ITEM: BOX BOUNDS oo rr pp
0 0.3
0 0.3
-0.5 0.5
ITEM: SURFS id f_4[1] f_4[2] f_4[3] f_4[4] f_4[5] f_4[6] f_4[7] f_4[8] f_4[9] 
1 0.0708 0.0708 0 3.68266e-05 3.68266e-05 -1.91727e-06 6.63757 2256.22 3376.86 
41 4.1386 4.1386 0 0.00407313 0.00407313 -1.09506e-05 40.7313 8206.68 11637.8 
81 4.555 4.555 0 0.00432859 0.00432859 -1.84766e-06 43.2859 7292.88 10451.2 
121 4.7272 4.7272 0 0.00440307 0.00440307 2.24762e-06 44.0307 6953.91 10083.3 
161 4.8068 4.8068 0 0.00449254 0.00449254 -1.14223e-05 44.9254 6841.79 9870.44 
201 4.8204 4.8204 0 0.00450846 0.00450846 -2.6371e-06 45.0846 6959.78 10052 
241 4.5908 4.5908 0 0.00434336 0.00434336 -7.56496e-07 43.4336 7312.24 10551.6 
281 4.3314 4.3314 0 0.00419267 0.00419267 -3.08825e-06 41.9267 7933.66 11342.8 
321 0.24 0.24 0 0.000286322 0.000286322 -5.20117e-06 28.3169 8952.04 11899.1 
361 0.533 0.533 0 0.000224576 0.000224576 -1.11842e-07 4.95677 1634 2327.75 
401 0.5096 0.5096 0 0.000218072 0.000218072 -1.20463e-06 4.80791 1601.83 2183.87 
441 0.5018 0.5018 0 0.000188359 0.000188359 1.14192e-06 4.77701 1453.15 1966.63 
481 0.4932 0.4932 0 0.000192788 0.000192788 -3.06789e-06 4.66942 1454.85 1966.87 
521 0.4844 0.4844 0 0.00019628 0.00019628 4.82822e-06 4.60754 1394.22 1799.46 
561 0.4546 0.4546 0 0.000183532 0.000183532 4.0634e-06 4.31558 1314.41 1763.12 
601 0.4078 0.4078 0 0.000193265 0.000193265 3.12259e-06 3.89893 1294.22 1647.46 
641 0.0074 0.0074 0 2.9327e-07 2.9327e-07 -1.52199e-06 0.595998 183.127 251.365 
681 0.0088 0.0088 0 -6.36156e-06 -6.36156e-06 -5.46417e-07 0.0636156 7.45343 10.6055 
721 0.007 0.007 0 -5.46329e-06 -5.46329e-06 8.35564e-07 0.0546329 8.33177 11.3185 
761 0.0102 0.0102 0 -8.39497e-06 -8.39497e-06 1.78042e-07 0.0839497 6.89797 19.3928 
801 0.0082 0.0082 0 -6.44352e-06 -6.44352e-06 -7.95495e-07 0.0644352 8.78482 15.8713 
841 0.0102 0.0102 0 -8.11395e-06 -8.11395e-06 -5.74733e-07 0.0811395 8.83655 24.5236 
881 0.0116 0.0116 0 -9.0146e-06 -9.0146e-06 9.01808e-07 0.090146 9.29112 21.6377 
921 0.0084 0.0084 0 -6.50796e-06 -6.50796e-06 8.49554e-07 0.0650796 7.4315 16.1867 
961 0.003 0.003 0 -5.54489e-07 -5.54489e-07 -9.00849e-07 0.182937 37.2086 90.792 
1001 0.397 0.397 0 0.000181508 0.000181508 1.17887e-05 3.76678 1201.43 1567.23 
1041 0.4478 0.4478 0 0.000184778 0.000184778 5.91218e-08 4.275 1388.33 1796.04 
1081 0.4842 0.4842 0 0.000196265 0.000196265 1.1198e-06 4.63458 1424.1 1883.32 
1121 0.485 0.485 0 0.000191857 0.000191857 -3.59774e-06 4.63801 1413.67 1886.54 
1161 0.5044 0.5044 0 0.000205673 0.000205673 -6.73734e-06 4.8545 1509.46 2046.25 
1201 0.5164 0.5164 0 0.000213706 0.000213706 8.32245e-06 4.84677 1595.85 2234.26 
1241 0.535 0.535 0 0.000215881 0.000215881 -9.98709e-07 5.0116 1672.2 2307.3 
2 0.0742 0.0742 0 4.63001e-05 4.63001e-05 9.00196e-07 7.42374 2488.1 3461.67 
42 4.234 4.234 0 0.00417338 0.00417338 1.23443e-05 41.7338 8236.68 11693.8 
82 4.5936 4.5936 0 0.00435707 0.00435707 -2.9844e-06 43.5707 7379.11 10455.9 
122 4.7674 4.7674 0 0.004459 0.004459 -9.31324e-06 44.59 6913.22 10043.6 
162 4.7596 4.7596 0 0.00444668 0.00444668 -4.47226e-06 44.4668 6719.5 9860.96 
202 4.7574 4.7574 0 0.00445005 0.00445005 -2.04791e-05 44.5005 6942.18 10167.5 
242 4.6272 4.6272 0 0.00436751 0.00436751 -5.70449e-06 43.6751 7173.22 10250.1 
282 4.3272 4.3272 0 0.00418558 0.00418558 6.18469e-06 41.8558 7889.08 11242.1 
322 0.2316 0.2316 0 0.000264216 0.000264216 1.78718e-06 26.1501 8633.64 11653.3 
362 0.5256 0.5256 0 0.000220281 0.000220281 -1.26747e-06 4.85983 1663.81 2329.32 
402 0.5242 0.5242 0 0.00021708 0.00021708 -5.42069e-06 4.96166 1632.21 2209.52 
442 0.5166 0.5166 0 0.000212883 0.000212883 -2.76158e-06 4.90634 1477.23 2003.2 
482 0.4698 0.4698 0 0.000192167 0.000192167 -5.32591e-06 4.50549 1376.32 1839.36 
522 0.4884 0.4884 0 0.000205328 0.000205328 -6.98504e-06 4.74565 1475.13 1959.84 
562 0.4438 0.4438 0 0.000184605 0.000184605 -4.3034e-06 4.21092 1318.99 1721.68 
602 0.3878 0.3878 0 0.000176673 0.000176673 -5.23516e-06 3.5987 1162.19 1502.53 
642 0.0068 0.0068 0 -6.79792e-07 -6.79792e-07 1.88126e-07 0.471637 115.353 156.269 
682 0.009 0.009 0 -6.06144e-06 -6.06144e-06 1.04035e-06 0.0606144 2.49799 12.7855 
722 0.0078 0.0078 0 -5.6527e-06 -5.6527e-06 3.52291e-07 0.056527 7.09616 15.5719 
762 0.009 0.009 0 -5.87674e-06 -5.87674e-06 5.28667e-07 0.0587674 9.54356 22.0728 
802 0.0086 0.0086 0 -5.38353e-06 -5.38353e-06 1.07569e-07 0.0538353 9.8424 17.6597 
842 0.0108 0.0108 0 -8.21814e-06 -8.21814e-06 8.24455e-07 0.0821814 14.5376 28.7637 
882 0.0094 0.0094 0 -6.71287e-06 -6.71287e-06 1.51532e-06 0.0671287 15.0076 27.7951 
922 0.0068 0.0068 0 -4.64404e-06 -4.64404e-06 -8.96708e-07 0.0464404 6.71295 19.0134 
962 0.0046 0.0046 0 -9.90885e-07 -9.90885e-07 -1.35184e-06 0.346297 67.7777 126.985 
1002 0.4068 0.4068 0 0.00019503 0.00019503 5.53106e-08 3.9169 1307.74 1707.54 
1042 0.438 0.438 0 0.000188316 0.000188316 -4.60097e-06 4.14594 1283.38 1664.74 
1082 0.4786 0.4786 0 0.0001917 0.0001917 4.90038e-07 4.62687 1445.47 1910.1 
1122 0.4744 0.4744 0 0.00019851 0.00019851 1.41928e-06 4.47136 1336.64 1793.1 
1162 0.5006 0.5006 0 0.000202761 0.000202761 5.85143e-06 4.7443 1502.58 2044.04 
1202 0.5348 0.5348 0 0.000219776 0.000219776 1.48383e-07 5.04869 1590 2235.29 
1242 0.518 0.518 0 0.000207206 0.000207206 -9.23464e-06 4.76329 1502.25 2155.34 
3 0.0836 0.0836 0 6.08802e-05 6.08802e-05 2.75454e-06 8.49618 2840.75 3905.13 
43 4.2178 4.2178 0 0.00415559 0.00415559 2.05228e-05 41.5559 8072.44 11420.2 
83 4.6138 4.6138 0 0.00436606 0.00436606 7.75966e-06 43.6606 7385.6 10644.3 
123 4.768 4.768 0 0.00444089 0.00444089 2.26394e-05 44.4089 6961.92 10103 
163 4.7984 4.7984 0 0.00446387 0.00446387 -1.52789e-05 44.6387 7055.79 10153.4 
203 4.7658 4.7658 0 0.00443352 0.00443352 4.78958e-06 44.3352 6918.69 10047.1 
243 4.618 4.618 0 0.00438889 0.00438889 3.20574e-05 43.8889 7386.09 10641.5 
283 4.323 4.323 0 0.00420438 0.00420438 1.89374e-05 42.0438 8097.39 11495.7 
323 0.204 0.204 0 0.000223906 0.000223906 -3.98503e-06 22.2795 7136.7 9756.05 
363 0.5286 0.5286 0 0.00021864 0.00021864 5.00503e-06 4.91626 1639.97 2256.05 
403 0.5224 0.5224 0 0.000208987 0.000208987 -9.53133e-06 4.93443 1519.15 2114.18 
443 0.502 0.502 0 0.000207806 0.000207806 8.45529e-07 4.79221 1540.93 2078.85 
483 0.4814 0.4814 0 0.000190653 0.000190653 -3.88939e-07 4.57846 1395.38 1859.89 
523 0.4812 0.4812 0 0.000192358 0.000192358 5.24346e-06 4.59933 1392.67 1839.74 
563 0.4416 0.4416 0 0.000183039 0.000183039 8.40485e-06 4.18308 1242.23 1626.26 
603 0.4066 0.4066 0 0.000191472 0.000191472 -1.45054e-06 3.93131 1293.26 1704.33 
643 0.0046 0.0046 0 -8.68152e-07 -8.68152e-07 7.27201e-07 0.33472 48.0553 59.4586 
683 0.0084 0.0084 0 -6.45502e-06 -6.45502e-06 -6.5764e-08 0.0645502 10.5967 13.0102 
723 0.0082 0.0082 0 -5.7627e-06 -5.7627e-06 -2.97085e-07 0.057627 7.35157 15.5635 
763 0.0102 0.0102 0 -6.76296e-06 -6.76296e-06 3.35145e-08 0.0676296 9.96153 20.1182 
803 0.0126 0.0126 0 -9.05812e-06 -9.05812e-06 1.05503e-07 0.0905812 9.73938 26.085 
843 0.0114 0.0114 0 -8.35618e-06 -8.35618e-06 6.48186e-07 0.0835618 11.5304 23.9406 
883 0.013 0.013 0 -9.54514e-06 -9.54514e-06 -4.07377e-07 0.0954514 12.1185 25.8082 
923 0.0108 0.0108 0 -8.11973e-06 -8.11973e-06 8.32835e-07 0.0811973 11.8351 21.3365 
963 0.008 0.008 0 -9.18243e-08 -9.18243e-08 4.74541e-07 0.625029 171.516 215.887 
1003 0.4068 0.4068 0 0.000189286 0.000189286 8.0842e-06 3.94258 1250.24 1605.14 
1043 0.4498 0.4498 0 0.000185607 0.000185607 8.67041e-06 4.31032 1333.58 1704.85 
1083 0.458 0.458 0 0.000187723 0.000187723 1.86679e-06 4.32438 1362.37 1807.55 
1123 0.484 0.484 0 0.000189936 0.000189936 -3.82042e-06 4.64617 1412.72 1906.49 
1163 0.4922 0.4922 0 0.000196787 0.000196787 1.48385e-06 4.74004 1430.87 1950.61 
1203 0.5166 0.5166 0 0.000211079 0.000211079 -8.2007e-06 4.80518 1502.68 2086.51 
1243 0.5262 0.5262 0 0.000225239 0.000225239 -3.58425e-06 4.90541 1642.23 2298.56 
4 0.0984 0.0984 0 8.02801e-05 8.02801e-05 -4.38831e-06 9.89561 3420.38 4947.48 
44 4.2476 4.2476 0 0.00415854 0.00415854 8.49716e-06 41.5854 8203.18 11700.4 
84 4.5836 4.5836 0 0.00432121 0.00432121 1.02287e-05 43.2121 7289.62 10333.1 
124 4.7284 4.7284 0 0.00440932 0.00440932 5.51364e-06 44.0932 7028.48 10198.9 
164 4.7804 4.7804 0 0.00446078 0.00446078 2.00777e-05 44.6078 6961.94 9998.26 
204 4.7176 4.7176 0 0.00441323 0.00441323 1.18255e-06 44.1323 7023.26 10231.7 
244 4.7018 4.7018 0 0.0044643 0.0044643 3.77146e-06 44.643 7576.28 10784.6 
284 4.2874 4.2874 0 0.00416744 0.00416744 9.35861e-06 41.6744 8140.52 11550.1 
324 0.1756 0.1756 0 0.000186822 0.000186822 -1.69192e-06 18.9339 6146.15 8613.13 
364 0.5408 0.5408 0 0.000222926 0.000222926 -3.7788e-06 4.96276 1614.12 2342.72 
404 0.5096 0.5096 0 0.000204206 0.000204206 6.90131e-06 4.82788 1549.67 2088.35 
444 0.519 0.519 0 0.000212348 0.000212348 2.80861e-06 4.8901 1593.67 2147.93 
484 0.4902 0.4902 0 0.000184173 0.000184173 -1.92041e-06 4.732 1362.05 1852.51 
524 0.4626 0.4626 0 0.000183311 0.000183311 5.32916e-06 4.39171 1376.37 1832.25 
564 0.4278 0.4278 0 0.00017713 0.00017713 -6.59249e-06 4.06165 1268.11 1658.99 
604 0.3996 0.3996 0 0.000179504 0.000179504 -4.54677e-06 3.86924 1208.18 1568.65 
644 0.0046 0.0046 0 -1.2792e-06 -1.2792e-06 5.2715e-07 0.382422 109.661 145.462 
684 0.007 0.007 0 -4.46375e-06 -4.46375e-06 -3.2387e-07 0.0446375 6.57934 13.9636 
724 0.0098 0.0098 0 -7.94305e-06 -7.94305e-06 -8.78821e-07 0.0794305 13.635 23.7776 
764 0.0118 0.0118 0 -9.11043e-06 -9.11043e-06 -6.79818e-07 0.0911043 14.8039 23.6039 
804 0.0112 0.0112 0 -7.84356e-06 -7.84356e-06 3.65478e-08 0.0784356 7.74407 21.3199 
844 0.009 0.009 0 -6.7031e-06 -6.7031e-06 -4.77801e-07 0.067031 8.50251 21.0392 
884 0.0112 0.0112 0 -8.23647e-06 -8.23647e-06 1.99549e-07 0.0823647 13.8595 24.4677 
924 0.0114 0.0114 0 -8.07175e-06 -8.07175e-06 -6.56765e-08 0.0807175 9.67154 14.7722 
964 0.0078 0.0078 0 4.08636e-08 4.08636e-08 4.48034e-07 0.682814 199.953 301.048 
1004 0.4178 0.4178 0 0.000179344 0.000179344 -2.95312e-06 4.10438 1276.73 1616.13 
1044 0.4438 0.4438 0 0.000183356 0.000183356 5.58066e-07 4.23009 1334.37 1740.6 
1084 0.4776 0.4776 0 0.00020444 0.00020444 -2.85893e-06 4.54779 1518.11 1933.85 
1124 0.4936 0.4936 0 0.000199165 0.000199165 4.53826e-07 4.74523 1474.52 1930.08 
1164 0.4976 0.4976 0 0.000191644 0.000191644 9.74918e-06 4.73618 1431.78 1953.07 
1204 0.53 0.53 0 0.000213629 0.000213629 -6.02416e-08 4.90266 1616.72 2192.41 
1244 0.5192 0.5192 0 0.000211669 0.000211669 6.53724e-06 4.7829 1545.72 2224.81 
5 0.1166 0.1166 0 0.000100719 0.000100719 -1.64118e-06 11.5444 4299.91 6034.22 
45 4.2656 4.2656 0 0.00413975 0.00413975 1.63581e-05 41.3975 8232.25 11630.5 
85 4.585 4.585 0 0.00433806 0.00433806 -1.2266e-05 43.3806 7288.74 10447.5 
125 4.7388 4.7388 0 0.00443174 0.00443174 -1.46081e-05 44.3174 6964.7 10110.9 
165 4.8274 4.8274 0 0.00452375 0.00452375 -9.17258e-07 45.2375 7092.54 10314.2 
205 4.8014 4.8014 0 0.00450017 0.00450017 3.86053e-06 45.0017 7042.97 10298.6 
245 4.5712 4.5712 0 0.00431565 0.00431565 8.67099e-06 43.1565 7173.7 10215.1 
285 4.3068 4.3068 0 0.00418603 0.00418603 2.37898e-06 41.8603 8043.48 11497.5 
325 0.17 0.17 0 0.000172983 0.000172983 -6.64869e-07 17.9142 6458.19 8872.01 
365 0.5288 0.5288 0 0.00021364 0.00021364 2.811e-06 4.89019 1554.89 2210.25 
405 0.5272 0.5272 0 0.000218032 0.000218032 1.38109e-06 4.98225 1592.95 2201.95 
445 0.5258 0.5258 0 0.000218316 0.000218316 7.85547e-07 4.96596 1534.61 2103.61 
485 0.4772 0.4772 0 0.000186325 0.000186325 3.97753e-06 4.54541 1350.18 1805 
525 0.4638 0.4638 0 0.000181962 0.000181962 -2.69649e-07 4.44271 1277.85 1731.38 
565 0.4268 0.4268 0 0.000180243 0.000180243 -7.84622e-06 4.07219 1315.74 1735.19 
605 0.3858 0.3858 0 0.00018154 0.00018154 -1.6226e-06 3.68224 1217.29 1577.22 
645 0.0036 0.0036 0 -9.77918e-07 -9.77918e-07 4.74535e-07 0.261701 86.9649 178.213 
685 0.0126 0.0126 0 -9.51929e-06 -9.51929e-06 2.36321e-07 0.0951929 10.7979 22.7084 
725 0.008 0.008 0 -5.58572e-06 -5.58572e-06 5.51872e-08 0.0558572 2.25724 8.64786 
765 0.0112 0.0112 0 -7.8514e-06 -7.8514e-06 -4.60641e-07 0.078514 8.11762 19.9841 
805 0.0094 0.0094 0 -7.06515e-06 -7.06515e-06 -6.71702e-07 0.0706515 6.52703 15.7566 
845 0.0106 0.0106 0 -8.23309e-06 -8.23309e-06 -1.8645e-07 0.0823309 4.90611 14.7802 
885 0.0092 0.0092 0 -6.82285e-06 -6.82285e-06 -1.9748e-07 0.0682285 10.464 19.5051 
925 0.0118 0.0118 0 -8.15704e-06 -8.15704e-06 -5.86542e-08 0.0815704 14.5218 30.2133 
965 0.013 0.013 0 2.35456e-06 2.35456e-06 -2.0296e-07 1.06317 376.308 515.145 
1005 0.4012 0.4012 0 0.000179697 0.000179697 -3.46752e-06 3.92198 1279.78 1646.29 
1045 0.4434 0.4434 0 0.000195547 0.000195547 -2.31594e-06 4.23216 1380.94 1788.5 
1085 0.4644 0.4644 0 0.000196464 0.000196464 -2.552e-06 4.46425 1422.23 1846.21 
1125 0.4972 0.4972 0 0.000187497 0.000187497 2.48364e-07 4.69946 1397.06 1896.49 
1165 0.521 0.521 0 0.00020045 0.00020045 -5.30149e-06 4.93724 1497.27 2034 
1205 0.52 0.52 0 0.00020655 0.00020655 -3.2885e-06 4.85902 1508.66 2118.68 
1245 0.5176 0.5176 0 0.000205758 0.000205758 -3.50008e-07 4.83753 1576.89 2237.99 
6 0.1202 0.1202 0 0.000114768 0.000114768 1.3993e-06 12.8585 4652.11 6441.68 
46 4.235 4.235 0 0.00411694 0.00411694 -1.09975e-06 41.1694 8000.28 11324.1 
86 4.6096 4.6096 0 0.00434082 0.00434082 -1.48603e-06 43.4082 7101.36 10293.6 
126 4.7372 4.7372 0 0.00445093 0.00445093 -1.02902e-05 44.5093 6891.84 9958.82 
166 4.7812 4.7812 0 0.00446702 0.00446702 3.64206e-06 44.6702 7058.57 10218.4 
206 4.7882 4.7882 0 0.00448587 0.00448587 1.50587e-06 44.8587 7078.27 10232 
246 4.5752 4.5752 0 0.00431947 0.00431947 -2.02673e-05 43.1947 7296.28 10517.5 
286 4.3106 4.3106 0 0.00419278 0.00419278 1.49174e-05 41.9278 8129.67 11653.5 
326 0.1408 0.1408 0 0.000144808 0.000144808 -2.30178e-06 15.1517 5324.7 7131.18 
366 0.5254 0.5254 0 0.000214387 0.000214387 -1.80369e-06 4.84918 1554.85 2203.35 
406 0.5046 0.5046 0 0.000205801 0.000205801 6.75706e-06 4.80508 1559.52 2114.11 
446 0.5078 0.5078 0 0.000211124 0.000211124 -1.11675e-05 4.89147 1559.01 2092.27 
486 0.4906 0.4906 0 0.000191004 0.000191004 1.54735e-07 4.63403 1386.96 1881.11 
526 0.4744 0.4744 0 0.00018987 0.00018987 -6.99217e-06 4.42694 1392.1 1815.29 
566 0.4342 0.4342 0 0.000178714 0.000178714 7.2427e-06 4.18241 1268.53 1691.41 
606 0.411 0.411 0 0.000196088 0.000196088 -6.76304e-06 3.95941 1298.49 1680.43 
646 0.0034 0.0034 0 -9.2022e-07 -9.2022e-07 -1.13263e-07 0.201051 59.1584 68.5375 
686 0.009 0.009 0 -6.27361e-06 -6.27361e-06 -1.03582e-06 0.0627361 8.96754 15.7865 
726 0.0094 0.0094 0 -7.08717e-06 -7.08717e-06 3.2644e-07 0.0708717 6.12128 17.3769 
766 0.0094 0.0094 0 -6.97458e-06 -6.97458e-06 -5.02911e-07 0.0697458 7.25163 14.1886 
806 0.0088 0.0088 0 -7.06204e-06 -7.06204e-06 -6.01453e-08 0.0706204 15.2244 26.6196 
846 0.0102 0.0102 0 -7.33939e-06 -7.33939e-06 8.81909e-07 0.0733939 4.54356 12.2988 
886 0.0096 0.0096 0 -7.28737e-06 -7.28737e-06 4.72314e-07 0.0728737 5.72912 10.7419 
926 0.0104 0.0104 0 -8.59056e-06 -8.59056e-06 -8.19243e-07 0.0859056 8.89 24.8782 
966 0.0154 0.0154 0 5.00212e-06 5.00212e-06 -3.46633e-07 1.30152 598.214 731.199 
1006 0.41 0.41 0 0.000184275 0.000184275 1.08759e-05 3.90853 1237.06 1601.05 
1046 0.4304 0.4304 0 0.000185571 0.000185571 5.16517e-06 4.09641 1269.15 1676.27 
1086 0.4712 0.4712 0 0.000182075 0.000182075 -2.63018e-06 4.50159 1366.48 1793.51 
1126 0.4842 0.4842 0 0.000190253 0.000190253 -2.49342e-06 4.59942 1394.7 1871.58 
1166 0.5054 0.5054 0 0.000207147 0.000207147 4.36336e-06 4.8982 1597.79 2110.69 
1206 0.5152 0.5152 0 0.000208484 0.000208484 4.44532e-06 4.90008 1529.22 2132.02 
1246 0.5168 0.5168 0 0.000216139 0.000216139 9.28322e-06 4.87487 1596.23 2228.82 
7 0.1444 0.1444 0 0.000142288 0.000142288 6.50537e-06 15.088 5535.94 7706.55 
47 4.2574 4.2574 0 0.00415964 0.00415964 6.08737e-06 41.5964 7843.05 11169.4 
87 4.6254 4.6254 0 0.0043784 0.0043784 1.43321e-05 43.784 7320.89 10508.8 
127 4.7622 4.7622 0 0.00444479 0.00444479 3.75077e-06 44.4479 6827.53 9967.5 
167 4.8226 4.8226 0 0.00449334 0.00449334 1.81279e-06 44.9334 7048.25 10054.5 
207 4.7722 4.7722 0 0.00447028 0.00447028 2.00853e-05 44.7028 7094.77 10290.4 
247 4.5844 4.5844 0 0.0043335 0.0043335 -7.59856e-06 43.335 7351.49 10564.1 
287 4.2496 4.2496 0 0.00412513 0.00412513 -3.38526e-05 41.2513 8093.43 11480.4 
327 0.1248 0.1248 0 0.000117689 0.000117689 -1.11442e-06 13.1582 4417.13 6324.41 
367 0.5356 0.5356 0 0.00022456 0.00022456 -7.52877e-06 5.04843 1624.59 2260.41 
407 0.5142 0.5142 0 0.00020626 0.00020626 -3.43222e-06 4.86225 1506.96 2051.68 
447 0.5128 0.5128 0 0.00020327 0.00020327 2.47202e-07 4.78384 1487.87 2016.42 
487 0.4888 0.4888 0 0.000183087 0.000183087 -4.75367e-06 4.61119 1380.57 1836.82 
527 0.4572 0.4572 0 0.000195029 0.000195029 2.70313e-06 4.35696 1443.69 1902.56 
567 0.4442 0.4442 0 0.000190178 0.000190178 -4.95137e-06 4.19947 1281.91 1708.25 
607 0.3878 0.3878 0 0.000184121 0.000184121 -3.31963e-06 3.77586 1219.49 1615.74 
647 0.0026 0.0026 0 -1.51541e-06 -1.51541e-06 4.14364e-07 0.206858 37.6518 43.3718 
687 0.0114 0.0114 0 -8.32746e-06 -8.32746e-06 4.4729e-07 0.0832746 13.7256 24.8883 
727 0.0104 0.0104 0 -7.51744e-06 -7.51744e-06 -6.07258e-07 0.0751744 8.20988 17.6371 
767 0.0112 0.0112 0 -7.62344e-06 -7.62344e-06 -8.46998e-07 0.0762344 9.40237 17.6945 
807 0.0084 0.0084 0 -6.36263e-06 -6.36263e-06 -1.04026e-06 0.0636263 9.47122 17.7705 
847 0.0084 0.0084 0 -7.23766e-06 -7.23766e-06 9.28084e-07 0.0723766 1.41319 15.2437 
887 0.0098 0.0098 0 -7.34875e-06 -7.34875e-06 7.50648e-07 0.0734875 3.93465 15.532 
927 0.011 0.011 0 -8.256e-06 -8.256e-06 -4.87339e-07 0.08256 6.57937 13.6566 
967 0.0242 0.0242 0 8.74867e-06 8.74867e-06 -7.21178e-07 2.27611 880.756 1085.38 
1007 0.4168 0.4168 0 0.000183348 0.000183348 -1.32182e-06 3.98699 1292.04 1667.68 
1047 0.4492 0.4492 0 0.000188877 0.000188877 1.91436e-06 4.31933 1302.89 1714.21 
1087 0.4738 0.4738 0 0.000193179 0.000193179 2.27865e-06 4.51738 1377.1 1827.44 
1127 0.4934 0.4934 0 0.000203148 0.000203148 -3.94619e-06 4.67999 1466.94 2002.37 
1167 0.5194 0.5194 0 0.000207079 0.000207079 1.26716e-05 4.92619 1491.92 2017.88 
1207 0.5288 0.5288 0 0.000220585 0.000220585 -3.49689e-06 4.97481 1609.5 2178.89 
1247 0.5342 0.5342 0 0.000224266 0.000224266 -8.5789e-07 4.90377 1631.65 2328.02 
8 0.1672 0.1672 0 0.000168884 0.000168884 -2.37704e-06 17.8124 5795.79 8155.42 
48 4.267 4.267 0 0.00416195 0.00416195 -1.2202e-05 41.6195 8160.18 11569.4 
88 4.6456 4.6456 0 0.00436842 0.00436842 -1.25552e-05 43.6842 7310.1 10448.8 
128 4.7442 4.7442 0 0.00443788 0.00443788 4.99251e-06 44.3788 6863.75 9957.59 
168 4.7768 4.7768 0 0.00447455 0.00447455 -5.50801e-06 44.7455 7044.03 10028.5 
208 4.7826 4.7826 0 0.00450025 0.00450025 -1.68423e-05 45.0025 7065.28 10238.6 
248 4.6284 4.6284 0 0.00440553 0.00440553 3.04517e-06 44.0553 7409.53 10707.5 
288 4.2372 4.2372 0 0.00413235 0.00413235 2.23717e-05 41.3235 8071.56 11479.2 
328 0.121 0.121 0 0.00010492 0.00010492 1.16602e-06 12.4126 4189.95 6000.31 
368 0.522 0.522 0 0.000204719 0.000204719 -8.94989e-06 4.97857 1549.38 2181.32 
408 0.522 0.522 0 0.000202335 0.000202335 -2.57094e-06 4.97133 1567.36 2184.7 
448 0.5042 0.5042 0 0.000184784 0.000184784 3.59666e-06 4.76532 1476.45 2027.33 
488 0.4982 0.4982 0 0.000205689 0.000205689 -6.88911e-06 4.69468 1524.02 2032.5 
528 0.4612 0.4612 0 0.00019333 0.00019333 3.59045e-06 4.3893 1382.65 1841.66 
568 0.4202 0.4202 0 0.00018098 0.00018098 3.57716e-06 3.9947 1225.96 1663.1 
608 0.3788 0.3788 0 0.000177004 0.000177004 -2.32966e-06 3.59995 1161.62 1503.03 
648 0.0018 0.0018 0 -8.07057e-07 -8.07057e-07 4.16726e-07 0.103124 14.4671 31.5973 
688 0.0106 0.0106 0 -6.93892e-06 -6.93892e-06 -9.44883e-08 0.0693892 12.0298 22.4098 
728 0.0118 0.0118 0 -8.96241e-06 -8.96241e-06 -7.08992e-07 0.0896241 14.8288 27.1583 
768 0.008 0.008 0 -5.52974e-06 -5.52974e-06 3.50503e-07 0.0552974 7.30502 12.1024 
808 0.0116 0.0116 0 -8.71632e-06 -8.71632e-06 1.55512e-07 0.0871632 14.0279 24.3614 
848 0.009 0.009 0 -6.90181e-06 -6.90181e-06 6.27426e-07 0.0690181 12.3915 22.4907 
888 0.0078 0.0078 0 -5.7091e-06 -5.7091e-06 2.31693e-07 0.057091 9.925 18.1244 
928 0.0096 0.0096 0 -6.38751e-06 -6.38751e-06 -3.14278e-08 0.0638751 6.21466 14.664 
968 0.029 0.029 0 1.27814e-05 1.27814e-05 -1.38024e-07 2.59794 1006.37 1307.34 
1008 0.4028 0.4028 0 0.000177026 0.000177026 -4.83713e-06 3.78783 1226.36 1556.18 
1048 0.4546 0.4546 0 0.000187427 0.000187427 3.50135e-06 4.3284 1296.14 1753.51 
1088 0.4636 0.4636 0 0.000193875 0.000193875 2.05517e-06 4.40539 1397.44 1815.47 
1128 0.4864 0.4864 0 0.00019486 0.00019486 3.35259e-06 4.64609 1423.57 1922.27 
1168 0.5044 0.5044 0 0.000202707 0.000202707 -4.87132e-06 4.76448 1481.5 1991.48 
1208 0.512 0.512 0 0.000211943 0.000211943 -3.6762e-06 4.79273 1568.45 2169.27 
1248 0.5364 0.5364 0 0.000214744 0.000214744 -3.12332e-07 4.92464 1549.09 2235.41 
9 0.1868 0.1868 0 0.000198931 0.000198931 -3.33145e-06 20.6108 6666.86 9114.06 
49 4.2946 4.2946 0 0.0041951 0.0041951 -2.04318e-05 41.951 8106.28 11538.7 
89 4.5942 4.5942 0 0.00435465 0.00435465 -1.72226e-05 43.5465 7251.57 10503.7 
129 4.7292 4.7292 0 0.0044429 0.0044429 -1.30762e-05 44.429 7006.45 10117.3 
169 4.7688 4.7688 0 0.00445098 0.00445098 7.79351e-06 44.5098 6916.97 10107.3 
209 4.7336 4.7336 0 0.00446727 0.00446727 -1.89485e-05 44.6727 7209.78 10412.9 
249 4.6162 4.6162 0 0.00437574 0.00437574 1.94346e-05 43.7574 7346.21 10478.1 
289 4.277 4.277 0 0.00418889 0.00418889 1.65388e-05 41.8889 8157.82 11536.3 
329 0.0918 0.0918 0 7.56688e-05 7.56688e-05 -2.0436e-06 9.05398 2783.73 3891.16 
369 0.5244 0.5244 0 0.000216997 0.000216997 -5.96656e-06 4.86287 1614.52 2333.11 
409 0.51 0.51 0 0.000212953 0.000212953 -2.74076e-06 4.81285 1610.81 2175.01 
449 0.4946 0.4946 0 0.000204723 0.000204723 -1.66263e-07 4.81859 1500.52 2034.09 
489 0.4742 0.4742 0 0.000197246 0.000197246 -2.30083e-06 4.49068 1470.11 1924.63 
529 0.4618 0.4618 0 0.000186003 0.000186003 -1.64289e-07 4.51801 1406.85 1846.53 
569 0.4486 0.4486 0 0.000181826 0.000181826 1.05671e-06 4.31927 1318.25 1713.11 
609 0.4012 0.4012 0 0.000191392 0.000191392 7.84592e-07 3.81124 1260.57 1606.12 
649 0.0016 0.0016 0 -8.93127e-07 -8.93127e-07 -3.0227e-07 0.100469 -2.88725 -2.72565 
689 0.0104 0.0104 0 -7.35481e-06 -7.35481e-06 -8.57873e-07 0.0735481 5.86054 19.75 
729 0.0104 0.0104 0 -7.65655e-06 -7.65655e-06 1.66543e-08 0.0765655 6.92437 14.9695 
769 0.0124 0.0124 0 -9.8972e-06 -9.8972e-06 -1.01412e-06 0.098972 14.759 22.026 
809 0.0114 0.0114 0 -7.80659e-06 -7.80659e-06 9.13614e-07 0.0780659 15.8405 28.8867 
849 0.0124 0.0124 0 -9.14315e-06 -9.14315e-06 -1.37355e-06 0.0914315 7.84782 27.8891 
889 0.0086 0.0086 0 -6.12358e-06 -6.12358e-06 -7.63356e-07 0.0612358 10.9119 16.8631 
929 0.0088 0.0088 0 -6.42991e-06 -6.42991e-06 -4.97234e-07 0.0642991 11.8029 21.9625 
969 0.032 0.032 0 1.72111e-05 1.72111e-05 3.50043e-08 3.11873 1155.47 1506 
1009 0.412 0.412 0 0.000184739 0.000184739 3.31758e-06 3.94211 1289.13 1666.56 
1049 0.436 0.436 0 0.000189797 0.000189797 -1.26962e-07 4.1006 1291.77 1713.62 
1089 0.4924 0.4924 0 0.000203002 0.000203002 4.36333e-06 4.64424 1433.74 1930.06 
1129 0.5014 0.5014 0 0.000203658 0.000203658 6.45859e-07 4.76255 1516.35 2032.57 
1169 0.488 0.488 0 0.000203412 0.000203412 2.74373e-06 4.6715 1507.26 2030.82 
1209 0.5218 0.5218 0 0.000211484 0.000211484 -2.84216e-06 4.92253 1591.59 2195.27 
1249 0.5258 0.5258 0 0.000204957 0.000204957 -2.18185e-06 4.82746 1480.01 2096.26 
10 0.211 0.211 0 0.000230878 0.000230878 -9.56983e-07 23.2298 7751.41 10693.3 
50 4.3552 4.3552 0 0.00421997 0.00421997 -6.82208e-06 42.1997 7895.42 11289.1 
90 4.655 4.655 0 0.00437446 0.00437446 4.96977e-07 43.7446 7353.92 10669.3 
130 4.7384 4.7384 0 0.0044239 0.0044239 1.89106e-05 44.239 6981.18 10040.1 
170 4.8204 4.8204 0 0.00449232 0.00449232 -1.33509e-05 44.9232 7023.18 10129.1 
210 4.7892 4.7892 0 0.00447518 0.00447518 -7.14032e-06 44.7518 7179.06 10327.2 
250 4.6462 4.6462 0 0.00441379 0.00441379 -1.1549e-05 44.1379 7381.48 10634.7 
290 4.243 4.243 0 0.00414219 0.00414219 -1.03843e-05 41.4219 8204.94 11639 
330 0.0836 0.0836 0 5.88949e-05 5.88949e-05 -2.19227e-06 7.77128 2884.36 4119.16 
370 0.5526 0.5526 0 0.000228035 0.000228035 -2.00552e-06 5.12654 1663.55 2338.63 
410 0.4998 0.4998 0 0.000209155 0.000209155 4.99407e-06 4.68108 1538.82 2109.06 
450 0.4874 0.4874 0 0.000201531 0.000201531 6.15338e-06 4.63254 1452.1 1911.33 
490 0.4746 0.4746 0 0.000180101 0.000180101 -7.17726e-06 4.51546 1357.11 1812.99 
530 0.4548 0.4548 0 0.000185679 0.000185679 -2.25405e-06 4.41135 1326.12 1759.18 
570 0.449 0.449 0 0.000188461 0.000188461 2.8206e-06 4.19084 1344.95 1797.07 
610 0.3852 0.3852 0 0.000178076 0.000178076 2.20697e-06 3.71437 1236.24 1549.51 
650 0.0014 0.0014 0 -7.50887e-07 -7.50887e-07 -2.40745e-07 0.0774988 2.54737 34.4657 
690 0.0086 0.0086 0 -6.80356e-06 -6.80356e-06 6.33e-07 0.0680356 3.33575 8.16643 
730 0.0084 0.0084 0 -6.23216e-06 -6.23216e-06 -1.08041e-06 0.0623216 3.37053 17.0938 
770 0.0102 0.0102 0 -7.79304e-06 -7.79304e-06 6.98656e-07 0.0779304 0.830964 12.1976 
810 0.0084 0.0084 0 -5.62064e-06 -5.62064e-06 -9.67394e-07 0.0562064 9.25013 19.4479 
850 0.0084 0.0084 0 -7.0055e-06 -7.0055e-06 9.47955e-07 0.070055 6.69109 17.639 
890 0.009 0.009 0 -6.83559e-06 -6.83559e-06 -2.76234e-07 0.0683559 11.9063 15.8043 
930 0.0096 0.0096 0 -7.8622e-06 -7.8622e-06 -2.73488e-07 0.078622 12.5659 20.514 
970 0.0842 0.0842 0 4.51938e-05 4.51938e-05 -2.66028e-06 3.25485 1146.85 1495.99 
1010 0.3898 0.3898 0 0.000175755 0.000175755 1.37855e-06 3.77452 1227.12 1608.02 
1050 0.454 0.454 0 0.000188695 0.000188695 2.65173e-06 4.34874 1319 1730.39 
1090 0.459 0.459 0 0.000182713 0.000182713 7.8487e-07 4.32454 1295.9 1709.33 
1130 0.502 0.502 0 0.000204474 0.000204474 1.0958e-05 4.79154 1530.84 2024.33 
1170 0.5176 0.5176 0 0.000211027 0.000211027 -1.29529e-05 5.00397 1494.28 2048.72 
1210 0.5194 0.5194 0 0.000206245 0.000206245 7.13387e-06 4.87219 1518.75 2114.17 
1250 0.5356 0.5356 0 0.000227142 0.000227142 -9.03294e-07 4.90031 1639.48 2333.92 
11 0.234 0.234 0 0.000256376 0.000256376 -7.28262e-07 25.1156 7852.21 11015.1 
51 4.348 4.348 0 0.0042214 0.0042214 -1.59283e-05 42.214 7945.11 11237.8 
91 4.6392 4.6392 0 0.0043677 0.0043677 1.98256e-05 43.677 7250.76 10354.6 
131 4.7306 4.7306 0 0.00442338 0.00442338 2.09913e-05 44.2338 6918.93 9939.21 
171 4.8266 4.8266 0 0.0045291 0.0045291 -3.37387e-05 45.291 7183.04 10317.5 
211 4.734 4.734 0 0.00443457 0.00443457 5.5678e-06 44.3457 7137.29 10313.8 
251 4.6052 4.6052 0 0.00436859 0.00436859 -6.63896e-06 43.6859 7365.86 10684.8 
291 4.2396 4.2396 0 0.00416827 0.00416827 -1.71867e-07 41.6827 8435.27 11908.5 
331 0.0716 0.0716 0 4.15593e-05 4.15593e-05 -1.37392e-06 6.63241 2217.32 3198.12 
371 0.5012 0.5012 0 0.000206325 0.000206325 1.71871e-06 4.66494 1460.24 2117.35 
411 0.5258 0.5258 0 0.000216773 0.000216773 1.01813e-05 4.9707 1583.03 2140.12 
451 0.4922 0.4922 0 0.000211683 0.000211683 -2.5677e-06 4.69063 1549.61 2090.97 
491 0.4904 0.4904 0 0.000193874 0.000193874 1.02093e-05 4.68833 1435.15 1903.6 
531 0.4554 0.4554 0 0.000185027 0.000185027 6.20734e-06 4.26858 1388.21 1830.82 
571 0.44 0.44 0 0.000188651 0.000188651 4.13358e-06 4.12874 1309.21 1727.3 
611 0.3616 0.3616 0 0.000168319 0.000168319 -5.6343e-06 3.50073 1119.47 1435.36 
651 0.0012 0.0012 0 -1.1777e-06 -1.1777e-06 -7.11226e-08 0.121567 12.3175 21.9335 
691 0.0074 0.0074 0 -5.36616e-06 -5.36616e-06 -8.92948e-07 0.0536616 5.55562 9.41799 
731 0.008 0.008 0 -6.18149e-06 -6.18149e-06 4.77452e-07 0.0618149 5.80595 11.5764 
771 0.008 0.008 0 -6.09032e-06 -6.09032e-06 2.22096e-08 0.0609032 3.22077 10.5487 
811 0.0084 0.0084 0 -6.23419e-06 -6.23419e-06 -1.01781e-07 0.0623419 2.06294 6.91139 
851 0.0104 0.0104 0 -7.46279e-06 -7.46279e-06 7.75205e-07 0.0746279 8.29515 21.3319 
891 0.0082 0.0082 0 -6.78119e-06 -6.78119e-06 -3.06036e-07 0.0678119 5.82186 12.7375 
931 0.0116 0.0116 0 -7.78976e-06 -7.78976e-06 8.77274e-07 0.0778976 14.0435 28.031 
971 0.0844 0.0844 0 4.82797e-05 4.82797e-05 1.37848e-06 3.3235 1286.36 1629.03 
1011 0.4028 0.4028 0 0.000175523 0.000175523 -1.22192e-06 3.7752 1174.92 1526.69 
1051 0.4524 0.4524 0 0.000191775 0.000191775 8.71194e-06 4.33218 1346.76 1775.96 
1091 0.4916 0.4916 0 0.000201375 0.000201375 -5.42117e-06 4.67921 1462.78 1930.43 
1131 0.4854 0.4854 0 0.000188819 0.000188819 6.04015e-07 4.6577 1445.18 1919.42 
1171 0.5182 0.5182 0 0.000209131 0.000209131 7.19402e-06 4.92529 1607.41 2134.56 
1211 0.526 0.526 0 0.00021143 0.00021143 4.65718e-06 4.9778 1566.05 2196.47 
1251 0.535 0.535 0 0.000215117 0.000215117 3.8018e-07 4.96019 1573.8 2270.93 
12 0.2518 0.2518 0 0.000278322 0.000278322 6.66366e-07 27.3965 8595.01 11736.4 
52 4.33 4.33 0 0.00419353 0.00419353 -3.29959e-06 41.9353 7919.88 11306.2 
92 4.6676 4.6676 0 0.00441698 0.00441698 -1.86549e-05 44.1698 7318.31 10373.2 
132 4.7406 4.7406 0 0.00442663 0.00442663 8.68073e-06 44.2663 6948.76 10042 
172 4.795 4.795 0 0.00447079 0.00447079 -1.13977e-06 44.7079 6865.57 9902.92 
212 4.724 4.724 0 0.00444058 0.00444058 1.70944e-05 44.4058 7114.79 10252 
252 4.5602 4.5602 0 0.00435936 0.00435936 1.27626e-06 43.5936 7479.28 10654.7 
292 4.1762 4.1762 0 0.00411825 0.00411825 1.38269e-05 41.1825 8304.76 11745.1 
332 0.0686 0.0686 0 3.98205e-05 3.98205e-05 -1.95782e-07 6.54804 2272.79 3512.06 
372 0.5238 0.5238 0 0.000216009 0.000216009 1.27716e-06 4.81982 1530.56 2145.45 
412 0.528 0.528 0 0.000215777 0.000215777 6.03692e-06 4.94078 1486.58 2077.07 
452 0.478 0.478 0 0.000194513 0.000194513 3.9483e-06 4.5719 1376.44 1887.71 
492 0.4688 0.4688 0 0.000189711 0.000189711 -1.89727e-06 4.42357 1336.2 1822.38 
532 0.472 0.472 0 0.000189948 0.000189948 -1.06511e-05 4.56735 1394.58 1847.03 
572 0.4288 0.4288 0 0.000179512 0.000179512 4.02009e-06 4.02739 1208.43 1577.79 
612 0.3726 0.3726 0 0.000180822 0.000180822 6.89803e-06 3.5895 1220.65 1570.47 