ITEM: TIMESTEP
6000
ITEM: NUMBER OF SURFS
1272
ITEM: BOX BOUNDS oo rr pp
0 0.3
0 0.3
-0.5 0.5
ITEM: SURFS id f_2[1] f_2[2] f_2[3] f_2[4] f_2[5] f_2[6] f_2[7] f_2[8] f_2[9] 
1 0.5442 0.5442 0 0.000948911 0.000948911 -5.06831e-06 37.9564 11305.1 15130.8 
41 2.7524 2.7524 0 0.00431245 0.00431245 1.01723e-05 43.1245 9106.96 12621.5 
81 2.9122 2.9122 0 0.00440865 0.00440865 -1.74414e-05 44.0865 8334.86 11734.3 
121 2.9976 2.9976 0 0.00451408 0.00451408 -2.43137e-05 45.1408 8477.53 11869.1 
161 2.9692 2.9692 0 0.00450574 0.00450574 -5.08078e-06 45.0574 8177.54 11417.4 
201 2.9804 2.9804 0 0.00452957 0.00452957 -1.48486e-05 45.2957 8395.22 11653.2 
241 2.8472 2.8472 0 0.00437067 0.00437067 2.69364e-05 43.7067 8657.51 11962.9 
281 2.567 2.567 0 0.00410217 0.00410217 1.44133e-05 41.0217 9445.48 12935.8 
321 0.1638 0.1638 0 0.000110487 0.000110487 -6.34962e-07 4.62261 1517.08 2162.22 
361 0.318 0.318 0 0.000223589 0.000223589 9.21456e-06 4.76401 1657.4 2234.96 
401 0.289 0.289 0 0.000197741 0.000197741 8.17049e-06 4.22186 1411.42 1900.9 
441 0.2808 0.2808 0 0.000196098 0.000196098 -5.78483e-06 4.18596 1443.88 1886.88 
481 0.2788 0.2788 0 0.000188393 0.000188393 -5.1323e-06 4.0843 1316.24 1765.7 
521 0.256 0.256 0 0.000184084 0.000184084 -5.65573e-07 3.86693 1354.47 1771.76 
561 0.2294 0.2294 0 0.000169581 0.000169581 4.42051e-06 3.44119 1169.62 1509.57 
601 0.216 0.216 0 0.000190963 0.000190963 -3.93295e-06 3.25061 1297.69 1629.12 
641 0.0042 0.0042 0 -4.04579e-06 -4.04579e-06 -9.55589e-08 0.0404579 3.13432 13.9321 
681 0.0038 0.0038 0 -3.95062e-06 -3.95062e-06 3.25579e-08 0.0395062 6.5095 16.3609 
721 0.0044 0.0044 0 -5.43494e-06 -5.43494e-06 -1.50857e-06 0.0543494 3.2661 8.13435 
761 0.0054 0.0054 0 -6.09147e-06 -6.09147e-06 -3.4657e-07 0.0609147 8.23079 11.4386 
801 0.0052 0.0052 0 -5.5576e-06 -5.5576e-06 8.18592e-07 0.055576 7.36811 19.9524 
841 0.004 0.004 0 -4.51829e-06 -4.51829e-06 3.89623e-07 0.0451829 7.95963 14.223 
881 0.0046 0.0046 0 -5.1715e-06 -5.1715e-06 1.04853e-06 0.051715 7.44869 8.40673 
921 0.004 0.004 0 -4.48362e-06 -4.48362e-06 7.02239e-07 0.0448362 9.2959 18.9043 
961 0.2042 0.2042 0 0.000176838 0.000176838 2.82562e-06 3.00986 1204.69 1471.19 
1001 0.227 0.227 0 0.000190849 0.000190849 -2.26545e-06 3.37456 1312.7 1679.44 
1041 0.255 0.255 0 0.000188763 0.000188763 4.88987e-06 3.80694 1330.61 1660.38 
1081 0.28 0.28 0 0.00019124 0.00019124 7.46457e-06 4.24008 1379.49 1819.13 
1121 0.2938 0.2938 0 0.000204594 0.000204594 4.19163e-06 4.33189 1471.1 1917.57 
1161 0.2996 0.2996 0 0.000202038 0.000202038 -3.59843e-06 4.35742 1504.6 1995.56 
1201 0.3126 0.3126 0 0.000220014 0.000220014 -5.40984e-06 4.66048 1521.39 2040.3 
1241 0.316 0.316 0 0.000209113 0.000209113 -2.60996e-06 4.54798 1492.44 2137.74 
2 0.5514 0.5514 0 0.000961592 0.000961592 4.09619e-06 38.4637 11455.5 15422.5 
42 2.7576 2.7576 0 0.00426317 0.00426317 1.33697e-06 42.6317 9217.5 12669.3 
82 2.9104 2.9104 0 0.00444968 0.00444968 -3.2978e-05 44.4968 8728.72 12127.7 
122 3.0116 3.0116 0 0.00451751 0.00451751 -4.86874e-06 45.1751 8141.6 11419.9 
162 3.011 3.011 0 0.00449695 0.00449695 -1.38954e-05 44.9695 8323 11699.8 
202 2.9836 2.9836 0 0.00449388 0.00449388 9.47548e-06 44.9388 8480.07 11774.5 
242 2.8402 2.8402 0 0.00436883 0.00436883 -1.17138e-05 43.6883 8685.61 12145.2 
282 2.6072 2.6072 0 0.00415606 0.00415606 -2.11349e-05 41.5606 9649.7 13386.7 
322 0.331 0.331 0 0.000217845 0.000217845 -1.33835e-06 4.66819 1526.68 2172.55 
362 0.3124 0.3124 0 0.000223174 0.000223174 6.35722e-06 4.56894 1630.11 2274.91 
402 0.3004 0.3004 0 0.000205885 0.000205885 7.77269e-06 4.45252 1548.7 2033.74 
442 0.2806 0.2806 0 0.000186406 0.000186406 -1.51154e-06 4.2042 1419.92 1862.59 
482 0.277 0.277 0 0.000190015 0.000190015 6.19404e-06 4.10919 1411.72 1865.05 
522 0.2588 0.2588 0 0.000177814 0.000177814 1.4776e-05 3.87625 1227.3 1588.73 
562 0.2432 0.2432 0 0.000176787 0.000176787 -9.53381e-07 3.62046 1195.75 1546.42 
602 0.2174 0.2174 0 0.000178571 0.000178571 1.15432e-06 3.21538 1085.74 1355.04 
642 0.0036 0.0036 0 -4.10462e-06 -4.10462e-06 2.46379e-07 0.0410462 5.72797 9.09752 
682 0.0052 0.0052 0 -5.64812e-06 -5.64812e-06 -1.69439e-07 0.0564812 5.95201 15.6829 
722 0.0046 0.0046 0 -5.9627e-06 -5.9627e-06 -7.21817e-07 0.059627 4.83841 9.92366 
762 0.005 0.005 0 -7.32346e-06 -7.32346e-06 1.29395e-06 0.0732346 9.39181 20.3627 
802 0.004 0.004 0 -5.3119e-06 -5.3119e-06 3.59598e-07 0.053119 9.61862 16.7159 
842 0.003 0.003 0 -3.7851e-06 -3.7851e-06 -8.78514e-07 0.037851 2.35315 7.34268 
882 0.0024 0.0024 0 -3.23264e-06 -3.23264e-06 -6.45984e-08 0.0323264 -2.89803 -1.37879 
922 0.0036 0.0036 0 -3.84044e-06 -3.84044e-06 -2.62723e-07 0.0384044 5.06289 19.5014 
962 0.1992 0.1992 0 0.000181825 0.000181825 -6.82815e-06 2.93039 1218.52 1488.51 
1002 0.2416 0.2416 0 0.000176758 0.000176758 1.83561e-06 3.55624 1243.44 1583.9 
1042 0.2496 0.2496 0 0.000177876 0.000177876 1.54837e-08 3.69257 1284.42 1635.69 
1082 0.2662 0.2662 0 0.000186431 0.000186431 -2.72103e-06 3.90931 1277.28 1715.47 
1122 0.2934 0.2934 0 0.00019751 0.00019751 -3.87566e-06 4.19763 1358.13 1789.32 
1162 0.291 0.291 0 0.000200775 0.000200775 3.27609e-06 4.38443 1493.62 1977.07 
1202 0.3128 0.3128 0 0.000212048 0.000212048 -2.50535e-06 4.59078 1518.62 2097.69 
1242 0.3416 0.3416 0 0.000237748 0.000237748 5.24723e-07 4.89475 1611.81 2223.74 
3 1.1328 1.1328 0 0.00196384 0.00196384 -4.48366e-06 39.2768 11666.4 15726.7 
43 2.78 2.78 0 0.00428994 0.00428994 6.49244e-06 42.8994 8877.69 12195.3 
83 2.9264 2.9264 0 0.00444351 0.00444351 -1.74913e-05 44.4351 8526.29 11764 
123 2.9738 2.9738 0 0.00449175 0.00449175 -1.11105e-05 44.9175 8187 11413.7 
163 2.9996 2.9996 0 0.00451285 0.00451285 -1.01448e-05 45.1285 8203.86 11497.7 
203 2.9886 2.9886 0 0.00450399 0.00450399 -3.65382e-05 45.0399 8387.58 11824.3 
243 2.846 2.846 0 0.00436957 0.00436957 1.39273e-05 43.6957 8725.82 12229.3 
283 2.5906 2.5906 0 0.004185 0.004185 2.261e-05 41.85 10227.9 13833 
323 0.3414 0.3414 0 0.000233174 0.000233174 3.27294e-06 4.72764 1693.03 2415.49 
363 0.3104 0.3104 0 0.000215577 0.000215577 5.15565e-06 4.50584 1534.59 2070.67 
403 0.3086 0.3086 0 0.000221741 0.000221741 -1.04499e-06 4.60908 1608.92 2169.3 
443 0.2882 0.2882 0 0.000191033 0.000191033 6.59624e-06 4.27249 1401.77 1885.88 
483 0.2784 0.2784 0 0.000197726 0.000197726 -4.86966e-06 4.08401 1441.05 1924.08 
523 0.2632 0.2632 0 0.000193892 0.000193892 -2.09688e-06 3.9735 1365.32 1774.76 
563 0.2446 0.2446 0 0.000184461 0.000184461 5.75159e-07 3.65498 1253.29 1630.93 
603 0.2084 0.2084 0 0.000175545 0.000175545 2.42767e-06 3.12881 1187.39 1441.3 
643 0.004 0.004 0 -3.77674e-06 -3.77674e-06 3.10813e-07 0.0377674 4.6351 12.6891 
683 0.0032 0.0032 0 -4.29795e-06 -4.29795e-06 -9.30652e-07 0.0429795 6.40146 10.1908 
723 0.0038 0.0038 0 -4.91161e-06 -4.91161e-06 8.13565e-07 0.0491161 6.59699 7.56399 
763 0.0036 0.0036 0 -4.79683e-06 -4.79683e-06 1.43887e-06 0.0479683 10.6646 18.659 
803 0.0054 0.0054 0 -7.08873e-06 -7.08873e-06 7.17782e-07 0.0708873 15.1949 24.3071 
843 0.0042 0.0042 0 -5.60821e-06 -5.60821e-06 3.80167e-07 0.0560821 7.79174 14.5691 
883 0.0054 0.0054 0 -6.11307e-06 -6.11307e-06 -8.63953e-07 0.0611307 2.22251 12.0908 
923 0.0054 0.0054 0 -6.26145e-06 -6.26145e-06 -1.06803e-06 0.0626145 -2.10378 -4.02149 
963 0.2046 0.2046 0 0.00019211 0.00019211 -7.2355e-06 3.07618 1325.89 1655.85 
1003 0.2192 0.2192 0 0.000171768 0.000171768 -3.18175e-06 3.21148 1165.11 1513.09 
1043 0.256 0.256 0 0.000176263 0.000176263 -2.54534e-06 3.82246 1211.93 1608.67 
1083 0.2618 0.2618 0 0.000178469 0.000178469 7.64808e-06 3.84792 1290.56 1703.07 
1123 0.2906 0.2906 0 0.000196946 0.000196946 -3.67295e-06 4.24526 1457.22 1907.7 
1163 0.299 0.299 0 0.000215 0.000215 7.85189e-07 4.48386 1545.34 2053.17 
1203 0.3122 0.3122 0 0.000218907 0.000218907 9.27733e-06 4.55095 1592.95 2188.32 
1243 0.3126 0.3126 0 0.000206167 0.000206167 1.41899e-05 4.52736 1526.37 2158.95 
4 2.3346 2.3346 0 0.00402668 0.00402668 -2.47105e-06 40.2668 11547.1 15380.1 
44 2.8186 2.8186 0 0.00434628 0.00434628 -3.31444e-05 43.4628 9227.24 12710.6 
84 2.9478 2.9478 0 0.00446276 0.00446276 -2.98066e-05 44.6276 8421.6 11603.6 
124 2.9858 2.9858 0 0.00451537 0.00451537 1.46442e-05 45.1537 8248.37 11497.8 
164 2.9958 2.9958 0 0.00450956 0.00450956 -3.05447e-06 45.0956 8247.54 11390.8 
204 2.971 2.971 0 0.00450414 0.00450414 1.65475e-05 45.0414 8340.55 11717 
244 2.8452 2.8452 0 0.00439029 0.00439029 -2.75824e-05 43.9029 8860.76 12264.2 
284 2.5346 2.5346 0 0.00408961 0.00408961 1.60741e-06 40.8961 9925.47 13537.6 
324 0.329 0.329 0 0.000214688 0.000214688 1.61829e-07 4.74232 1641.06 2377.74 
364 0.3176 0.3176 0 0.000216306 0.000216306 -7.76388e-07 4.63147 1593.12 2169.1 
404 0.3048 0.3048 0 0.000198496 0.000198496 -2.76364e-07 4.5356 1551 2085.39 
444 0.2964 0.2964 0 0.000193186 0.000193186 -1.494e-05 4.45111 1487.53 1942.18 
484 0.284 0.284 0 0.000203374 0.000203374 -6.70964e-06 4.32615 1503.19 1911.07 
524 0.2558 0.2558 0 0.000191276 0.000191276 9.70113e-06 3.85466 1373.04 1728.6 
564 0.2438 0.2438 0 0.0001823 0.0001823 -3.53253e-06 3.49513 1256.24 1653.46 
604 0.2208 0.2208 0 0.000178875 0.000178875 -2.13995e-06 3.3047 1171 1507.95 
644 0.0064 0.0064 0 -6.69456e-06 -6.69456e-06 -3.47841e-07 0.0669456 7.82846 16.856 
684 0.0046 0.0046 0 -5.83674e-06 -5.83674e-06 4.55438e-07 0.0583674 3.53418 11.3488 
724 0.0054 0.0054 0 -6.32194e-06 -6.32194e-06 2.39536e-07 0.0632194 13.7496 23.8206 
764 0.0044 0.0044 0 -4.98571e-06 -4.98571e-06 -8.29776e-07 0.0498571 5.15442 11.4884 
804 0.0062 0.0062 0 -6.19287e-06 -6.19287e-06 2.04382e-07 0.0619287 14.1684 24.475 
844 0.0038 0.0038 0 -4.46263e-06 -4.46263e-06 -2.68258e-08 0.0446263 8.17982 15.8903 
884 0.0036 0.0036 0 -4.13507e-06 -4.13507e-06 -3.09383e-07 0.0413507 -1.82596 4.21175 
924 0.0044 0.0044 0 -5.10493e-06 -5.10493e-06 -6.51397e-07 0.0510493 3.48952 12.9829 
964 0.2148 0.2148 0 0.00019324 0.00019324 1.83709e-06 3.19469 1275.36 1641.44 
1004 0.2222 0.2222 0 0.000171904 0.000171904 -1.00859e-06 3.41185 1235.79 1644.46 
1044 0.2524 0.2524 0 0.000170092 0.000170092 -5.74154e-06 3.79426 1205.78 1585.91 
1084 0.2688 0.2688 0 0.000185516 0.000185516 -5.4056e-06 3.94369 1369.86 1766.49 
1124 0.2854 0.2854 0 0.000197942 0.000197942 8.54764e-07 4.13996 1400.31 1848.93 
1164 0.3188 0.3188 0 0.00021902 0.00021902 5.38642e-06 4.79771 1598.54 2132.98 
1204 0.3228 0.3228 0 0.00022525 0.00022525 -3.04485e-06 4.6732 1619.22 2170.75 
1244 0.316 0.316 0 0.000224556 0.000224556 1.60003e-06 4.46718 1569.92 2171.57 
5 2.3832 2.3832 0 0.00405805 0.00405805 -2.79457e-05 40.5805 11509.2 15398.5 
45 2.7912 2.7912 0 0.00431974 0.00431974 2.80762e-06 43.1974 9192.08 12598.4 
85 2.95 2.95 0 0.0044879 0.0044879 -1.81022e-06 44.879 8562.68 11916.9 
125 3.0098 3.0098 0 0.00451422 0.00451422 -2.89189e-05 45.1422 8236.97 11522.8 
165 3.0238 3.0238 0 0.00454122 0.00454122 -3.21429e-05 45.4122 8238.33 11712.1 
205 2.9722 2.9722 0 0.00449057 0.00449057 -1.69543e-05 44.9057 8420.08 11765.5 
245 2.8646 2.8646 0 0.00441573 0.00441573 7.16981e-06 44.1573 8776.89 12371.6 
285 2.5534 2.5534 0 0.00410841 0.00410841 2.22683e-05 41.0841 9843.65 13454.5 
325 0.3284 0.3284 0 0.000223164 0.000223164 -1.33687e-05 4.62798 1584.85 2299.31 
365 0.3164 0.3164 0 0.000229323 0.000229323 -6.5822e-06 4.72075 1696.5 2312.29 
405 0.294 0.294 0 0.000197731 0.000197731 2.59402e-06 4.36246 1445.71 1929.38 
445 0.2978 0.2978 0 0.000196268 0.000196268 -1.89249e-06 4.45698 1378.19 1829.78 
485 0.2722 0.2722 0 0.000183476 0.000183476 8.3159e-06 3.99446 1364.42 1778.15 
525 0.2716 0.2716 0 0.000190302 0.000190302 -2.61251e-07 3.98526 1386.71 1775.78 
565 0.2582 0.2582 0 0.000199773 0.000199773 -4.73549e-06 3.85009 1388.09 1769.56 
605 0.2262 0.2262 0 0.00019384 0.00019384 5.52458e-06 3.4634 1338.91 1646.51 
645 0.0054 0.0054 0 -5.0835e-06 -5.0835e-06 -6.46772e-07 0.050835 1.53462 11.725 
685 0.0038 0.0038 0 -4.63781e-06 -4.63781e-06 -1.30053e-06 0.0463781 7.36028 17.8958 
725 0.0044 0.0044 0 -5.62199e-06 -5.62199e-06 2.26129e-07 0.0562199 6.67108 12.0052 
765 0.0058 0.0058 0 -6.83374e-06 -6.83374e-06 -1.47208e-07 0.0683374 15.5516 21.9598 
805 0.0074 0.0074 0 -8.41809e-06 -8.41809e-06 -6.13827e-07 0.0841809 9.07252 17.4092 
845 0.004 0.004 0 -5.33137e-06 -5.33137e-06 -1.16716e-06 0.0533137 11.0956 19.7853 
885 0.0036 0.0036 0 -4.7915e-06 -4.7915e-06 -6.40609e-07 0.047915 10.0984 13.469 
925 0.0048 0.0048 0 -5.21032e-06 -5.21032e-06 -5.09146e-07 0.0521032 5.30065 11.1446 
965 0.2068 0.2068 0 0.000177035 0.000177035 2.39929e-06 3.01664 1116.57 1400.89 
1005 0.2426 0.2426 0 0.000189576 0.000189576 -5.27394e-06 3.66852 1447.46 1809.35 
1045 0.2674 0.2674 0 0.00019171 0.00019171 2.68869e-06 4.0246 1355.97 1704.81 
1085 0.2848 0.2848 0 0.0002087 0.0002087 2.60011e-06 4.23597 1456.41 1895.18 
1125 0.2974 0.2974 0 0.000214423 0.000214423 2.23634e-06 4.40854 1523.15 2012.67 
1165 0.3102 0.3102 0 0.000207775 0.000207775 5.66172e-06 4.61209 1517.47 2072 
1205 0.3104 0.3104 0 0.000219067 0.000219067 -1.49144e-05 4.55958 1558.78 2076.04 
1245 0.3252 0.3252 0 0.000210584 0.000210584 -3.9765e-06 4.61672 1570.04 2184.79 
6 2.4354 2.4354 0 0.00414483 0.00414483 -1.03523e-05 41.4483 11597.1 15476.1 
46 2.8346 2.8346 0 0.00438636 0.00438636 -1.02215e-05 43.8636 8857.8 12271 
86 2.9652 2.9652 0 0.00450525 0.00450525 1.9324e-05 45.0525 8462.1 11658.6 
126 2.9894 2.9894 0 0.00447906 0.00447906 2.08391e-05 44.7906 8261.99 11654 
166 2.9964 2.9964 0 0.00449616 0.00449616 9.12128e-06 44.9616 8124.59 11428.7 
206 2.9762 2.9762 0 0.0044966 0.0044966 4.28191e-05 44.966 8229.07 11473.8 
246 2.8542 2.8542 0 0.00438143 0.00438143 1.54975e-05 43.8143 9004.68 12360.4 
286 2.552 2.552 0 0.00412122 0.00412122 -3.84042e-05 41.2122 10010.8 13710.8 
326 0.315 0.315 0 0.000221627 0.000221627 1.46843e-05 4.56678 1548.64 2215.28 
366 0.3232 0.3232 0 0.000223709 0.000223709 -2.8036e-06 4.73293 1624.41 2218.86 
406 0.2902 0.2902 0 0.00019593 0.00019593 1.07846e-05 4.32111 1511.22 1995.48 
446 0.2908 0.2908 0 0.000204889 0.000204889 1.02873e-05 4.19595 1461.67 1985.69 
486 0.2724 0.2724 0 0.00018917 0.00018917 -2.67857e-07 4.11793 1358.89 1793.45 
526 0.2692 0.2692 0 0.000191769 0.000191769 -2.15173e-06 3.9983 1338.17 1761.85 
566 0.2334 0.2334 0 0.00017792 0.00017792 -1.3325e-06 3.45829 1276.56 1598.9 
606 0.1966 0.1966 0 0.00016949 0.00016949 2.14247e-06 2.89007 1094.43 1364.99 
646 0.0018 0.0018 0 -1.44462e-06 -1.44462e-06 -1.68265e-07 0.0144462 4.56089 4.33971 
686 0.0048 0.0048 0 -5.22113e-06 -5.22113e-06 -5.68329e-07 0.0522113 7.057 17.0335 
726 0.005 0.005 0 -5.07759e-06 -5.07759e-06 -4.41997e-07 0.0507759 3.16705 14.2691 
766 0.0042 0.0042 0 -4.53123e-06 -4.53123e-06 -3.83149e-07 0.0453123 6.92057 7.55346 
806 0.0042 0.0042 0 -4.5078e-06 -4.5078e-06 6.89245e-07 0.045078 4.58289 9.20316 
846 0.005 0.005 0 -6.10166e-06 -6.10166e-06 1.16851e-07 0.0610166 15.1373 20.877 
886 0.0046 0.0046 0 -5.53275e-06 -5.53275e-06 4.03207e-07 0.0553275 3.01895 5.13112 
926 0.0032 0.0032 0 -4.28051e-06 -4.28051e-06 2.76765e-07 0.0428051 3.46647 7.94982 
966 0.2 0.2 0 0.000180244 0.000180244 -2.86151e-07 3.052 1295.61 1626.66 
1006 0.2444 0.2444 0 0.000181008 0.000181008 -1.37189e-06 3.58974 1276.2 1578.23 
1046 0.2602 0.2602 0 0.00018834 0.00018834 1.00937e-06 3.8872 1312.73 1778.79 
1086 0.2736 0.2736 0 0.000189019 0.000189019 7.19846e-06 4.12317 1411.07 1826.3 
1126 0.2826 0.2826 0 0.000199244 0.000199244 -6.69465e-06 4.21667 1398.8 1821.58 
1166 0.3138 0.3138 0 0.000220047 0.000220047 -4.39896e-06 4.70113 1688.25 2195.77 
1206 0.3164 0.3164 0 0.000227627 0.000227627 9.03336e-06 4.60575 1589.54 2170.99 
1246 0.3254 0.3254 0 0.000211078 0.000211078 -9.91178e-07 4.64499 1516.89 2177.86 
7 2.42 2.42 0 0.00406042 0.00406042 -7.36913e-07 40.6042 11245.9 15027.3 
47 2.8534 2.8534 0 0.00442807 0.00442807 -1.27537e-06 44.2807 9260.05 12841.7 
87 2.9798 2.9798 0 0.00454179 0.00454179 2.23581e-05 45.4179 8558.11 11971.3 
127 3.0388 3.0388 0 0.00457245 0.00457245 -5.40603e-06 45.7245 8491.88 11758.2 
167 3.015 3.015 0 0.00454529 0.00454529 1.97064e-05 45.4529 8175.45 11448.6 
207 2.9814 2.9814 0 0.00451254 0.00451254 2.28928e-06 45.1254 8372.99 11693.8 
247 2.8748 2.8748 0 0.00440427 0.00440427 1.7148e-06 44.0427 8781.81 12193.1 
287 2.564 2.564 0 0.00415001 0.00415001 2.24675e-05 41.5001 10279.7 14016.5 
327 0.3194 0.3194 0 0.000215945 0.000215945 -9.39237e-06 4.52217 1513.43 2106.92 
367 0.31 0.31 0 0.000225381 0.000225381 -9.45011e-06 4.52341 1624.08 2170.45 
407 0.305 0.305 0 0.000207482 0.000207482 -6.64243e-06 4.54208 1580.95 2092.2 
447 0.2844 0.2844 0 0.000188281 0.000188281 -9.27824e-06 4.28406 1398.57 1828.51 
487 0.2574 0.2574 0 0.000183596 0.000183596 -1.07091e-05 3.83659 1269.71 1685.03 
527 0.2566 0.2566 0 0.000179149 0.000179149 -1.77295e-06 3.8388 1265.77 1646.4 
567 0.2434 0.2434 0 0.000182137 0.000182137 5.30387e-06 3.55774 1269.8 1610.65 
607 0.2088 0.2088 0 0.000181384 0.000181384 -8.2059e-06 3.10008 1210.27 1508.93 
647 0.005 0.005 0 -4.70437e-06 -4.70437e-06 2.51326e-07 0.0470437 9.50729 17.3242 
687 0.004 0.004 0 -4.07986e-06 -4.07986e-06 8.61023e-07 0.0407986 1.89688 6.33602 
727 0.0064 0.0064 0 -6.48998e-06 -6.48998e-06 -7.72562e-07 0.0648998 7.18178 17.6461 
767 0.0034 0.0034 0 -4.68817e-06 -4.68817e-06 1.29449e-07 0.0468817 5.90244 13.4278 
807 0.0054 0.0054 0 -7.44158e-06 -7.44158e-06 5.98225e-07 0.0744158 15.1631 28.0432 
847 0.0042 0.0042 0 -4.77818e-06 -4.77818e-06 8.8134e-07 0.0477818 9.64352 12.4378 
887 0.0038 0.0038 0 -4.10636e-06 -4.10636e-06 -6.46977e-07 0.0410636 7.22068 13.6502 
927 0.0028 0.0028 0 -3.27835e-06 -3.27835e-06 -5.51603e-09 0.0327835 5.90391 9.94617 
967 0.2036 0.2036 0 0.000163244 0.000163244 -6.74132e-06 3.03123 1142.77 1460.84 
1007 0.2386 0.2386 0 0.000180972 0.000180972 -6.4603e-06 3.53176 1267.19 1590.16 
1047 0.2646 0.2646 0 0.000185113 0.000185113 -3.59987e-06 3.92741 1335.59 1729.16 
1087 0.2754 0.2754 0 0.000194231 0.000194231 9.94644e-06 4.05485 1419.15 1798.14 
1127 0.286 0.286 0 0.000198699 0.000198699 -2.70901e-06 4.27968 1497.35 1915.71 
1167 0.3052 0.3052 0 0.000224816 0.000224816 3.8908e-07 4.67853 1671.7 2208.24 
1207 0.319 0.319 0 0.000236695 0.000236695 -2.70687e-06 4.66344 1717.61 2354.24 
1247 0.3292 0.3292 0 0.000218222 0.000218222 1.01305e-05 4.76657 1537.47 2194.16 
8 2.4724 2.4724 0 0.00418147 0.00418147 -1.81503e-05 41.8147 11504.9 15530.3 
48 2.8478 2.8478 0 0.00439938 0.00439938 -1.3159e-05 43.9938 9013.23 12575.3 
88 2.937 2.937 0 0.00445516 0.00445516 2.63751e-05 44.5516 8624.7 12046.6 
128 3 3 0 0.00455605 0.00455605 3.13612e-05 45.5605 8475.17 11808.9 
168 3.0148 3.0148 0 0.00453773 0.00453773 4.03796e-06 45.3773 8129.47 11311.6 
208 3.0192 3.0192 0 0.00458009 0.00458009 2.61853e-05 45.8009 8612.09 11970.1 
248 2.8646 2.8646 0 0.00439729 0.00439729 -6.49107e-06 43.9729 9213 12662.9 
288 2.5438 2.5438 0 0.00409562 0.00409562 -5.73522e-06 40.9562 9997.71 13609.5 
328 0.3242 0.3242 0 0.000224796 0.000224796 6.76119e-06 4.55913 1582.08 2213.58 
368 0.3072 0.3072 0 0.000217416 0.000217416 -1.75839e-06 4.48403 1519.93 2054.23 
408 0.3006 0.3006 0 0.000207583 0.000207583 -1.09783e-05 4.45088 1529.3 2071.29 
448 0.285 0.285 0 0.000196367 0.000196367 2.88821e-06 4.25884 1429.53 1902.94 
488 0.2712 0.2712 0 0.00019387 0.00019387 4.30399e-06 4.14276 1426.1 1811.79 
528 0.255 0.255 0 0.000175677 0.000175677 -8.12162e-06 3.7061 1261.48 1688.13 
568 0.2376 0.2376 0 0.000184206 0.000184206 2.56856e-06 3.53963 1270.76 1589.82 
608 0.1902 0.1902 0 0.000169405 0.000169405 -1.23508e-06 2.84393 1104.12 1339.66 
648 0.0044 0.0044 0 -4.29144e-06 -4.29144e-06 -1.07166e-06 0.0429144 4.38541 11.3904 
688 0.004 0.004 0 -5.15156e-06 -5.15156e-06 -9.49304e-08 0.0515156 -0.025567 1.06761 
728 0.0064 0.0064 0 -6.22946e-06 -6.22946e-06 -8.19323e-07 0.0622946 9.55863 23.3766 
768 0.0058 0.0058 0 -6.64748e-06 -6.64748e-06 7.98143e-08 0.0664748 9.14028 9.16865 
808 0.0048 0.0048 0 -5.68065e-06 -5.68065e-06 9.87496e-07 0.0568065 9.52347 20.6471 
848 0.0048 0.0048 0 -6.68238e-06 -6.68238e-06 1.6022e-07 0.0668238 8.08765 11.3584 
888 0.0036 0.0036 0 -4.04077e-06 -4.04077e-06 2.74043e-10 0.0404077 5.73572 11.0174 
928 0.0026 0.0026 0 -2.82036e-06 -2.82036e-06 1.0287e-07 0.0282036 4.0546 7.08023 
968 0.2094 0.2094 0 0.000181417 0.000181417 3.51189e-07 3.18703 1207.13 1525.51 
1008 0.23 0.23 0 0.000176221 0.000176221 6.85248e-06 3.45119 1205.81 1517.49 
1048 0.2596 0.2596 0 0.000184072 0.000184072 -1.12088e-05 3.87685 1309.12 1668.11 
1088 0.2604 0.2604 0 0.000174934 0.000174934 -9.71772e-07 3.98371 1311.96 1682.05 
1128 0.2822 0.2822 0 0.000192584 0.000192584 4.76453e-06 4.23846 1445.93 1892.78 
1168 0.3026 0.3026 0 0.000208553 0.000208553 -1.02842e-05 4.51276 1515.6 2064.82 
1208 0.3178 0.3178 0 0.000218111 0.000218111 5.77874e-06 4.73451 1598.65 2220.03 
1248 0.3198 0.3198 0 0.000220609 0.000220609 1.46826e-05 4.5727 1604.24 2301.75 
9 2.4362 2.4362 0 0.00407726 0.00407726 1.4626e-05 40.7726 10944.2 14781.2 
49 2.8006 2.8006 0 0.00435133 0.00435133 3.94609e-05 43.5133 9072.95 12520.2 
89 2.996 2.996 0 0.00453746 0.00453746 -3.00928e-05 45.3746 8491.61 11804.7 
129 2.9836 2.9836 0 0.00449384 0.00449384 -4.34625e-06 44.9384 8339.02 11663.4 
169 3.0072 3.0072 0 0.00455663 0.00455663 -1.50828e-05 45.5663 8423.64 11600.7 
209 3.0154 3.0154 0 0.00458088 0.00458088 3.35549e-05 45.8088 8698.76 12070.3 
249 2.8732 2.8732 0 0.00446394 0.00446394 5.84755e-06 44.6394 8925.52 12463.6 
289 2.5544 2.5544 0 0.00416092 0.00416092 -2.45054e-05 41.6092 10545.2 14213 
329 0.3166 0.3166 0 0.000217165 0.000217165 -2.21931e-06 4.50203 1533.53 2170.38 
369 0.3258 0.3258 0 0.000225381 0.000225381 1.33754e-05 4.7572 1636.94 2200.3 
409 0.3096 0.3096 0 0.000206963 0.000206963 4.72605e-06 4.67791 1553.76 2054.35 
449 0.2966 0.2966 0 0.000192769 0.000192769 -8.66932e-06 4.36001 1483.79 1973.1 
489 0.2664 0.2664 0 0.000188344 0.000188344 3.1974e-06 3.97511 1318.22 1722.78 
529 0.2686 0.2686 0 0.000200033 0.000200033 2.47175e-06 4.08671 1442.91 1877.23 
569 0.2252 0.2252 0 0.000162619 0.000162619 -7.09656e-07 3.34141 1161.31 1496.82 
609 0.1924 0.1924 0 0.000171277 0.000171277 -1.3318e-06 2.88865 1086.98 1395.96 
649 0.0042 0.0042 0 -4.35922e-06 -4.35922e-06 -6.71391e-07 0.0435922 7.8163 16.8265 
689 0.0048 0.0048 0 -5.81519e-06 -5.81519e-06 -7.70276e-07 0.0581519 3.42207 2.58853 
729 0.0046 0.0046 0 -4.45704e-06 -4.45704e-06 -1.18781e-06 0.0445704 7.63968 15.0517 
769 0.0056 0.0056 0 -7.37608e-06 -7.37608e-06 1.58578e-06 0.0737608 7.9086 9.95613 
809 0.0038 0.0038 0 -4.21836e-06 -4.21836e-06 -3.53043e-07 0.0421836 4.76214 10.156 
849 0.0046 0.0046 0 -5.92725e-06 -5.92725e-06 6.55239e-07 0.0592725 10.4382 27.6355 
889 0.005 0.005 0 -5.44178e-06 -5.44178e-06 1.57682e-07 0.0544178 3.31741 11.4437 
929 0.005 0.005 0 -5.31018e-06 -5.31018e-06 9.869e-08 0.0531018 5.58853 13.0539 
969 0.199 0.199 0 0.000174935 0.000174935 -2.03732e-06 3.02931 1190.77 1509.94 
1009 0.2354 0.2354 0 0.00017943 0.00017943 -6.51971e-06 3.55967 1198.61 1529.52 
1049 0.2534 0.2534 0 0.00017911 0.00017911 8.50661e-06 3.75578 1273.55 1638.23 
1089 0.2734 0.2734 0 0.000193722 0.000193722 -4.41664e-06 4.09908 1450.23 1866.49 
1129 0.2802 0.2802 0 0.00018151 0.00018151 1.20237e-06 4.21436 1343.08 1790.49 
1169 0.3004 0.3004 0 0.000206291 0.000206291 1.53363e-06 4.45278 1452.72 1987.01 
1209 0.3224 0.3224 0 0.00022094 0.00022094 7.22902e-06 4.73082 1628.31 2232.78 
1249 0.2982 0.2982 0 0.000206852 0.000206852 7.73276e-06 4.23714 1393.13 2004.77 
10 2.4728 2.4728 0 0.00414492 0.00414492 -1.24701e-05 41.4492 11034.8 14992.9 
50 2.8394 2.8394 0 0.00442222 0.00442222 -8.74734e-06 44.2222 9074.76 12600.4 
90 2.976 2.976 0 0.00451245 0.00451245 1.41085e-05 45.1245 8251.79 11549.9 
130 3.0054 3.0054 0 0.00453906 0.00453906 -2.70452e-05 45.3906 8289.7 11542.8 
170 2.9832 2.9832 0 0.00447158 0.00447158 7.51236e-06 44.7158 8192.14 11428.1 
210 2.955 2.955 0 0.00447355 0.00447355 -3.58771e-05 44.7355 8467.07 11797.9 
250 2.8366 2.8366 0 0.00436677 0.00436677 -2.54742e-05 43.6677 8869.44 12336.9 
290 2.5136 2.5136 0 0.00410953 0.00410953 8.79899e-06 41.0953 10491.9 14274.4 
330 0.3144 0.3144 0 0.000208584 0.000208584 -8.7444e-06 4.57091 1487.81 2138.36 
370 0.3202 0.3202 0 0.00022658 0.00022658 7.51448e-06 4.76386 1661.47 2194.32 
410 0.2952 0.2952 0 0.0001948 0.0001948 1.22906e-07 4.40846 1399.97 1883.33 
450 0.2786 0.2786 0 0.000199445 0.000199445 3.02162e-06 4.10061 1398.27 1799.82 
490 0.2772 0.2772 0 0.000189201 0.000189201 -1.13608e-05 4.0199 1283.21 1680.75 
530 0.2566 0.2566 0 0.000188217 0.000188217 7.28804e-08 3.86794 1295.66 1674.52 
570 0.2364 0.2364 0 0.000183312 0.000183312 -7.89753e-07 3.49196 1300.97 1642.93 
610 0.2096 0.2096 0 0.000181355 0.000181355 -7.60877e-06 3.16195 1274.39 1593.87 
650 0.0044 0.0044 0 -4.627e-06 -4.627e-06 3.67743e-07 0.04627 7.27664 14.9543 
690 0.0042 0.0042 0 -5.29611e-06 -5.29611e-06 4.62441e-07 0.0529611 10.5039 14.8992 
730 0.007 0.007 0 -9.38228e-06 -9.38228e-06 -6.84809e-07 0.0938228 5.26862 13.0054 
770 0.0046 0.0046 0 -6.02706e-06 -6.02706e-06 -1.06876e-06 0.0602706 4.57005 11.2803 
810 0.005 0.005 0 -6.31722e-06 -6.31722e-06 1.64616e-06 0.0631722 10.348 19.5981 
850 0.0036 0.0036 0 -3.71923e-06 -3.71923e-06 -1.03558e-06 0.0371923 5.85854 5.91252 
890 0.0048 0.0048 0 -5.73655e-06 -5.73655e-06 -1.6182e-06 0.0573655 15.1204 25.1133 
930 0.0064 0.0064 0 -7.55477e-06 -7.55477e-06 8.67793e-07 0.0755477 8.52532 19.1231 
970 0.2144 0.2144 0 0.000183599 0.000183599 5.40491e-06 3.27541 1264.58 1596.95 
1010 0.2438 0.2438 0 0.000185103 0.000185103 2.52808e-06 3.58242 1301.68 1646.11 
1050 0.2556 0.2556 0 0.000181532 0.000181532 -4.20126e-06 3.74658 1256.16 1639.15 
1090 0.2824 0.2824 0 0.000209674 0.000209674 -3.23075e-06 4.19479 1425.63 1796.55 
1130 0.2926 0.2926 0 0.000198928 0.000198928 2.54929e-06 4.34756 1450.62 1967.69 
1170 0.319 0.319 0 0.000225218 0.000225218 -1.00283e-05 4.77171 1642.18 2155.02 
1210 0.3114 0.3114 0 0.000204402 0.000204402 1.10508e-05 4.57308 1542.84 2115.32 
1250 0.3294 0.3294 0 0.000217159 0.000217159 3.12055e-07 4.73788 1571.34 2268.69 
11 2.4282 2.4282 0 0.00400788 0.00400788 -1.09208e-05 40.0788 10454.2 14123 
51 2.8318 2.8318 0 0.00437152 0.00437152 2.52314e-05 43.7152 8864.19 12211.4 
91 2.97 2.97 0 0.00451702 0.00451702 1.22869e-05 45.1702 8532.78 11840.8 
131 2.9928 2.9928 0 0.00449895 0.00449895 2.55919e-05 44.9895 8499.18 11691.6 
171 3.0042 3.0042 0 0.00451547 0.00451547 3.84908e-06 45.1547 8231.92 11590.6 
211 2.9516 2.9516 0 0.00444135 0.00444135 -9.4156e-06 44.4135 8295.44 11614.2 
251 2.8148 2.8148 0 0.00435429 0.00435429 3.53129e-05 43.5429 8892.73 12400.9 
291 2.423 2.423 0 0.00399117 0.00399117 -2.29751e-05 39.9117 10025.6 13520.2 
331 0.3436 0.3436 0 0.000226848 0.000226848 -4.07343e-06 4.98444 1546.08 2265.33 
371 0.3086 0.3086 0 0.000216611 0.000216611 1.08556e-05 4.49017 1600.08 2140.88 
411 0.3106 0.3106 0 0.000215666 0.000215666 -9.99683e-06 4.61893 1556.73 2035.66 
451 0.2928 0.2928 0 0.000187718 0.000187718 -6.04498e-06 4.36507 1407.71 1908.85 
491 0.2806 0.2806 0 0.000192666 0.000192666 4.84022e-06 4.17823 1364.31 1811.52 
531 0.256 0.256 0 0.000184819 0.000184819 -1.81264e-07 3.84956 1275.24 1690.51 
571 0.2378 0.2378 0 0.000188251 0.000188251 5.36484e-06 3.60649 1314.34 1643.32 
611 0.2084 0.2084 0 0.000181111 0.000181111 4.8991e-07 3.11863 1193.12 1498.2 
651 0.004 0.004 0 -4.70787e-06 -4.70787e-06 1.00607e-07 0.0470787 3.25114 7.69017 
691 0.0042 0.0042 0 -5.42447e-06 -5.42447e-06 1.775e-07 0.0542447 8.29103 19.8173 
731 0.0038 0.0038 0 -4.15292e-06 -4.15292e-06 -9.68923e-08 0.0415292 3.58382 11.5425 
771 0.0036 0.0036 0 -3.86769e-06 -3.86769e-06 1.29016e-06 0.0386769 4.90049 12.5074 
811 0.0064 0.0064 0 -8.0785e-06 -8.0785e-06 -5.10399e-07 0.080785 2.75341 14.8704 
851 0.0046 0.0046 0 -6.06708e-06 -6.06708e-06 -3.5574e-07 0.0606708 3.35618 12.9601 
891 0.0056 0.0056 0 -7.15906e-06 -7.15906e-06 -3.16511e-07 0.0715906 15.974 23.0736 
931 0.004 0.004 0 -3.77575e-06 -3.77575e-06 1.64744e-07 0.0377575 3.76851 8.22648 
971 0.2218 0.2218 0 0.000181873 0.000181873 -8.21617e-06 3.36836 1197.03 1512.6 
1011 0.2476 0.2476 0 0.000173326 0.000173326 1.75664e-05 3.7119 1289.18 1665.19 
1051 0.2604 0.2604 0 0.000187778 0.000187778 5.57502e-06 3.95794 1362.1 1752.84 
1091 0.2704 0.2704 0 0.000180378 0.000180378 -5.77451e-06 3.98275 1323.86 1736.16 
1131 0.2812 0.2812 0 0.000192343 0.000192343 -3.47929e-06 4.14075 1391.6 1849.69 
1171 0.2924 0.2924 0 0.000205652 0.000205652 1.32142e-06 4.30219 1436.84 1961.91 
1211 0.3196 0.3196 0 0.000212623 0.000212623 5.66005e-06 4.73561 1605.67 2249.83 
1251 0.352 0.352 0 0.000236901 0.000236901 -1.26818e-05 4.91794 1722.16 2518.43 
12 2.454 2.454 0 0.0040113 0.0040113 2.27516e-05 40.113 10362.8 14060.2 
52 2.769 2.769 0 0.00427438 0.00427438 1.73174e-05 42.7438 8807.98 12308.8 
92 2.9426 2.9426 0 0.00443386 0.00443386 7.93903e-06 44.3386 8318.96 11604.1 
132 2.9812 2.9812 0 0.0045201 0.0045201 -2.76485e-06 45.201 8176.84 11496 
172 2.9602 2.9602 0 0.00445106 0.00445106 -1.51739e-05 44.5106 8057.85 11192.8 
212 2.9316 2.9316 0 0.00443864 0.00443864 1.49399e-05 44.3864 8378.93 11858 
252 2.8194 2.8194 0 0.00437203 0.00437203 -3.33911e-05 43.7203 9070.83 12509.1 
292 2.4152 2.4152 0 0.00402235 0.00402235 2.14122e-06 40.2235 10599.5 14266.9 
332 0.3242 0.3242 0 0.0002084 0.0002084 6.39267e-06 4.60954 1556.78 2235.43 
372 0.3214 0.3214 0 0.00022578 0.00022578 6.25889e-06 4.69019 1658.38 2280.43 
412 0.2936 0.2936 0 0.000198593 0.000198593 -3.79675e-06 4.26927 1469.31 1975.37 
452 0.2888 0.2888 0 0.000184116 0.000184116 -2.3652e-06 4.23353 1311.23 1736.32 
492 0.2862 0.2862 0 0.000200871 0.000200871 4.31134e-06 4.2564 1442.9 1918.87 
532 0.26 0.26 0 0.00017808 0.00017808 1.35962e-06 3.85868 1244.88 1627.5 
572 0.2296 0.2296 0 0.000185228 0.000185228 1.18985e-06 3.47214 1316.1 1665.61 
612 0.2022 0.2022 0 0.000186672 0.000186672 -5.28313e-08 3.0041 1231.91 1549.6 