ITEM: TIMESTEP
25000
ITEM: NUMBER OF SURFS
1000
ITEM: BOX BOUNDS oo rr pp
0 0.3
0 0.3
-0.5 0.5
ITEM: SURFS id f_4[1] f_4[2] f_4[3] f_4[4] f_4[5] f_4[6] f_4[7] f_4[8] f_4[9] 
1 1.1398 1.1398 0 0.00793957 0.00793957 -0.000126408 486.921 24354.5 31484.8 
41 2.1568 2.1568 0 0.0336107 0.0336107 -0.000335381 922.122 39054.7 54338.2 
81 3.5982 3.5982 0 0.090994 0.090994 -0.000250151 1587.09 109928 147496 
121 5.3984 5.3984 0 0.175298 0.175298 0.000215894 2393.5 173818 240636 
161 7.6318 7.6318 0 0.27994 0.27994 -0.000218749 3344.63 209852 298201 
201 9.0406 9.0406 0 0.365778 0.365778 -0.00141647 4014.7 274376 389457 
241 10.0794 10.0794 0 0.416802 0.416802 6.8919e-05 4427.42 277017 398730 
281 9.5316 9.5316 0 0.398776 0.398776 -0.000527547 4288.86 331316 485039 
321 8.1546 8.1546 0 0.318117 0.318117 0.000413535 3634.33 279506 401962 
361 6.6062 6.6062 0 0.226236 0.226236 9.52016e-05 2900.64 184256 254334 
401 4.6322 4.6322 0 0.128343 0.128343 -3.47184e-05 2014.71 125326 170369 
441 2.8844 2.8844 0 0.0577013 0.0577013 0.00041439 1244.96 75135.1 97938.4 
481 1.5076 1.5076 0 0.0158516 0.0158516 0.000371735 640.841 30097.1 39667.8 
521 0.7574 0.7574 0 0.00111314 0.00111314 0.000492568 321.627 14055.5 19308 
561 0.354 0.354 0 -0.00281262 -0.00281262 3.33836e-06 150.175 5480.92 6734.89 
601 0.1598 0.1598 0 -0.00263935 -0.00263935 0.000119994 66.2855 2350.42 3250.64 
641 0.2176 0.2176 0 -0.006362 -0.006362 0.000168425 88.2232 1847.77 2061.36 
681 0.267 0.267 0 -0.00949227 -0.00949227 -8.30012e-05 111.031 230.998 922.718 
721 0.278 0.278 0 -0.0107927 -0.0107927 8.13918e-05 116.659 3145.48 4231.3 
761 0.2764 0.2764 0 -0.0107821 -0.0107821 -0.00016063 114.696 3180.54 4889.68 
801 0.2702 0.2702 0 -0.010001 -0.010001 0.000203837 110.943 2490.4 3456.36 
841 0.2494 0.2494 0 -0.00843658 -0.00843658 -0.000160101 104.239 1461.1 2113.58 
881 0.1646 0.1646 0 -0.00378821 -0.00378821 -0.000157456 68.9547 1555.57 2054.45 
921 0.2712 0.2712 0 -0.00300515 -0.00300515 0.000107704 111.989 5108.85 7164.54 
961 0.5644 0.5644 0 -0.00138417 -0.00138417 0.00024149 240.262 9479.43 13137.9 
2 1.1884 1.1884 0 0.00920094 0.00920094 -0.000122561 505.729 25044.3 33425.3 
42 2.1732 2.1732 0 0.0347425 0.0347425 -0.000159459 927.173 44809.8 62101.9 
82 3.5144 3.5144 0 0.0850964 0.0850964 -6.43028e-05 1521.53 80150.4 107363 
122 5.612 5.612 0 0.175431 0.175431 -4.11893e-05 2429.56 125464 179017 
162 7.4482 7.4482 0 0.279748 0.279748 0.000354632 3314.84 253523 356801 
202 9.2688 9.2688 0 0.372997 0.372997 -0.00171616 4088.86 256961 370614 
242 10.0022 10.0022 0 0.41485 0.41485 0.000710165 4405.8 268680 385506 
282 9.6682 9.6682 0 0.396121 0.396121 -0.000988687 4269.64 280571 412858 
322 8.4448 8.4448 0 0.320581 0.320581 0.000778765 3685.59 210301 298843 
362 6.218 6.218 0 0.21214 0.21214 0.000901271 2734.63 184393 263196 
402 4.3042 4.3042 0 0.117101 0.117101 0.00153805 1857.31 95093.7 133273 
442 2.653 2.653 0 0.0518016 0.0518016 0.000135029 1132.23 63089 81660.9 
482 1.4876 1.4876 0 0.0146244 0.0146244 3.19977e-05 634.43 28334.7 36579.3 
522 0.7484 0.7484 0 0.000763493 0.000763493 -0.000362216 314.944 14633.7 18626.4 
562 0.3458 0.3458 0 -0.0029045 -0.0029045 4.09564e-05 146.411 5843.9 7711.65 
602 0.168 0.168 0 -0.00288539 -0.00288539 0.000220236 70.7895 2497.1 2902.98 
642 0.229 0.229 0 -0.0070177 -0.0070177 -1.35308e-05 95.0525 1368.81 1696.2 
682 0.2624 0.2624 0 -0.00940696 -0.00940696 -4.63151e-05 108.352 895.235 1712.22 
722 0.2704 0.2704 0 -0.0105536 -0.0105536 0.00014548 112.943 2366.95 4039.97 
762 0.2804 0.2804 0 -0.0110861 -0.0110861 1.45919e-05 117.93 3762.22 5176.61 
802 0.2578 0.2578 0 -0.00959242 -0.00959242 -2.1849e-05 106.973 802.279 1787.6 
842 0.24 0.24 0 -0.00770353 -0.00770353 -8.31576e-05 96.1548 56.5031 825.211 
882 0.149 0.149 0 -0.00342403 -0.00342403 -0.000164409 61.5512 2193.52 2553.4 
922 0.2614 0.2614 0 -0.00311206 -0.00311206 -9.68308e-05 108.827 4153.38 5390.38 
962 0.58 0.58 0 -0.00149788 -0.00149788 -0.000335526 246.465 11894.8 15460.2 
3 1.2152 1.2152 0 0.00858172 0.00858172 0.000396222 520.386 24294.4 33785.4 
43 2.3106 2.3106 0 0.0382527 0.0382527 -0.000187154 995.387 57423.5 76335.4 
83 3.887 3.887 0 0.0961278 0.0961278 0.000445761 1676 95731.3 128900 
123 5.7888 5.7888 0 0.187019 0.187019 -0.00078023 2549.16 174565 242792 
163 7.8686 7.8686 0 0.287638 0.287638 -0.000730691 3422.39 190349 274810 
203 9.3282 9.3282 0 0.369579 0.369579 -4.26919e-05 4055.36 218851 319154 
243 9.8234 9.8234 0 0.410243 0.410243 -0.000357054 4355.18 279957 408569 
283 9.7252 9.7252 0 0.390629 0.390629 0.000143438 4218.5 239773 349345 
323 8.3964 8.3964 0 0.319671 0.319671 -0.000702105 3675.45 220867 316874 
363 6.525 6.525 0 0.219961 0.219961 -0.000357587 2853.96 167045 234133 
403 4.341 4.341 0 0.121333 0.121333 -0.00136345 1911.91 130676 179347 
443 2.6544 2.6544 0 0.0486517 0.0486517 0.000300144 1128.99 52185.3 68596.2 
483 1.4286 1.4286 0 0.0134659 0.0134659 0.00024179 612.016 26436 35313.6 
523 0.749 0.749 0 -0.000105473 -0.000105473 0.00038454 314.611 14875.4 19319.2 
563 0.345 0.345 0 -0.00277977 -0.00277977 -7.1816e-05 145.235 6676.01 8736.57 
603 0.1684 0.1684 0 -0.00289052 -0.00289052 -0.000118386 70.1435 2669.28 3100.71 
643 0.2254 0.2254 0 -0.006745 -0.006745 4.9233e-05 92.7307 1746.91 3092.18 
683 0.2646 0.2646 0 -0.0093447 -0.0093447 -1.42798e-06 108.456 973.526 1568.74 
723 0.2638 0.2638 0 -0.0102321 -0.0102321 0.00015998 109.72 3283.84 4440.27 
763 0.2636 0.2636 0 -0.0103665 -0.0103665 9.14495e-05 110.142 3668.78 4707.82 
803 0.2504 0.2504 0 -0.009397 -0.009397 0.000160745 104.949 1989.23 2555.77 
843 0.2442 0.2442 0 -0.00799252 -0.00799252 -8.33974e-05 101.238 1144.96 1942.85 
883 0.1564 0.1564 0 -0.00346008 -0.00346008 5.5094e-05 63.8003 735.718 1130.18 
923 0.2754 0.2754 0 -0.00329815 -0.00329815 0.00012989 111.873 4501.99 4940.47 
963 0.592 0.592 0 -0.00187578 -0.00187578 -4.93785e-05 249.617 8786.17 11710.8 
4 1.2616 1.2616 0 0.00925256 0.00925256 2.28445e-05 535.701 25677 33426.7 
44 2.2842 2.2842 0 0.0390722 0.0390722 -0.000312871 985.124 60574 79878.8 
84 3.8558 3.8558 0 0.0982504 0.0982504 0.000170918 1678.85 103485 140873 
124 5.4878 5.4878 0 0.174743 0.174743 0.000757199 2393.54 148286 202992 
164 7.7386 7.7386 0 0.28822 0.28822 -0.000621048 3412.48 228453 316141 
204 9.3428 9.3428 0 0.379849 0.379849 -0.000350464 4148.09 288982 418143 
244 10.0456 10.0456 0 0.420577 0.420577 -0.000285517 4465.06 307544 439854 
284 9.7612 9.7612 0 0.394399 0.394399 -0.000632049 4257.95 252678 364219 
324 7.9436 7.9436 0 0.309167 0.309167 -0.00092477 3547.51 265856 378721 
364 5.9538 5.9538 0 0.200717 0.200717 -2.29587e-05 2622.25 183147 254468 
404 4.436 4.436 0 0.120195 0.120195 -0.000496274 1916.55 107210 147997 
444 2.4508 2.4508 0 0.0481063 0.0481063 6.11678e-05 1073.2 71367.2 95923.4 
484 1.4462 1.4462 0 0.0134212 0.0134212 0.000291627 613.26 25994.6 35176.3 
524 0.7406 0.7406 0 -0.0001335 -0.0001335 -0.000215238 310.909 10211.2 15059.3 
564 0.3496 0.3496 0 -0.00319474 -0.00319474 -0.000262641 144.699 5874.81 7517.83 
604 0.1634 0.1634 0 -0.00270482 -0.00270482 0.000142959 66.903 2953.12 3839.02 
644 0.234 0.234 0 -0.00716675 -0.00716675 0.000160722 95.058 1242.86 1101.51 
684 0.2524 0.2524 0 -0.00899084 -0.00899084 -4.67087e-05 103.894 1653.11 2718.62 
724 0.2706 0.2706 0 -0.0103004 -0.0103004 8.4387e-06 110.801 3422.97 4361.09 
764 0.2742 0.2742 0 -0.0107643 -0.0107643 -7.51466e-05 114.682 2494.02 4403.78 
804 0.2554 0.2554 0 -0.00947082 -0.00947082 -0.000142363 106.014 1474.31 2178.86 
844 0.2402 0.2402 0 -0.00782712 -0.00782712 2.03955e-05 99.932 1761.44 2269.31 
884 0.1606 0.1606 0 -0.00339726 -0.00339726 2.91714e-05 66.0319 2081.68 1967.7 
924 0.2762 0.2762 0 -0.00295165 -0.00295165 -7.67772e-05 113.53 5073.25 6425.97 
964 0.594 0.594 0 -0.00168758 -0.00168758 -0.000173715 247.826 9893.64 12385.6 
5 1.267 1.267 0 0.0095087 0.0095087 0.000126592 537.523 25412.4 33809.9 
45 2.191 2.191 0 0.0368112 0.0368112 1.61821e-05 945.125 57080.1 73747.3 
85 3.5884 3.5884 0 0.0909625 0.0909625 -0.000236019 1563.21 93472.4 126946 
125 6.0118 6.0118 0 0.193268 0.193268 -0.000959711 2615.93 169350 236099 
165 7.775 7.775 0 0.291365 0.291365 8.24684e-05 3425.3 233251 333323 
205 9.3066 9.3066 0 0.381721 0.381721 -1.00234e-05 4159.83 324076 465435 
245 9.874 9.874 0 0.41413 0.41413 -0.000221626 4394.78 316838 455891 
285 9.4798 9.4798 0 0.387517 0.387517 3.55069e-05 4192.38 267100 384374 
325 8.2488 8.2488 0 0.314149 0.314149 -0.000379363 3626.35 231680 337457 
365 6.4876 6.4876 0 0.21726 0.21726 -0.000181648 2834.59 171443 247934 
405 4.0204 4.0204 0 0.10852 0.10852 0.000302319 1749.1 100751 140640 
445 2.6878 2.6878 0 0.0518484 0.0518484 -9.04695e-05 1159.82 72892.4 96407.5 
485 1.4156 1.4156 0 0.0124422 0.0124422 -0.000534256 597.399 27655.2 36162.9 
525 0.728 0.728 0 -0.000506512 -0.000506512 -8.80308e-06 304.675 11393.4 15725.1 
565 0.3544 0.3544 0 -0.00312472 -0.00312472 3.03698e-05 148.201 5403.62 6913.9 
605 0.1596 0.1596 0 -0.00270809 -0.00270809 -0.000125766 65.5122 2118.52 2234.91 
645 0.2276 0.2276 0 -0.00724627 -0.00724627 9.60077e-05 95.6189 639.191 572.817 
685 0.2578 0.2578 0 -0.0094289 -0.0094289 0.000124703 107.603 801.106 1683.21 
725 0.2586 0.2586 0 -0.0101989 -0.0101989 6.70557e-05 108.842 3106.32 4075.41 
765 0.2664 0.2664 0 -0.0104884 -0.0104884 -0.000128282 111.661 2628.47 3811.06 
805 0.2652 0.2652 0 -0.00973257 -0.00973257 1.30407e-06 109.38 1281.71 1996.01 
845 0.2482 0.2482 0 -0.00802568 -0.00802568 3.14486e-05 102.861 9.291 741.962 
885 0.1546 0.1546 0 -0.00314438 -0.00314438 3.81525e-05 64.3295 2007.65 2762.9 
925 0.2888 0.2888 0 -0.00298574 -0.00298574 -8.50981e-05 116.098 4282.65 5949.28 
965 0.5924 0.5924 0 -0.00178093 -0.00178093 0.000296789 249.174 9499.28 12322.1 
6 1.2984 1.2984 0 0.00937957 0.00937957 -0.000365798 553.166 26303.8 35185.3 
46 2.2658 2.2658 0 0.0358944 0.0358944 -4.70359e-05 965.818 45626.3 62658.5 
86 4.101 4.101 0 0.103241 0.103241 -9.90143e-05 1768.32 90890.5 122552 
126 5.5266 5.5266 0 0.180674 0.180674 -1.2401e-06 2430.27 167176 230216 
166 7.7284 7.7284 0 0.287304 0.287304 -0.000871969 3382.76 214593 310299 
206 9.187 9.187 0 0.374423 0.374423 0.0014118 4081.2 289711 416876 
246 9.9706 9.9706 0 0.418792 0.418792 0.000899825 4444.31 320010 461837 
286 9.4636 9.4636 0 0.386021 0.386021 -4.87052e-05 4172.01 277197 401058 
326 8.2106 8.2106 0 0.310122 0.310122 -0.000585746 3593.3 216576 307893 
366 5.9822 5.9822 0 0.199421 0.199421 -0.00084973 2611.59 164478 228840 
406 4.1432 4.1432 0 0.112684 0.112684 2.24501e-05 1817.55 122782 167547 
446 2.6334 2.6334 0 0.0491328 0.0491328 6.78942e-05 1127.2 59136.4 80075.6 
486 1.395 1.395 0 0.0122215 0.0122215 0.00044035 591.216 27499.8 36708.7 
526 0.7066 0.7066 0 -0.000542028 -0.000542028 -6.66058e-05 295.993 11475.1 14611.7 
566 0.3328 0.3328 0 -0.00286338 -0.00286338 -2.99941e-05 138.546 6074.22 8124.32 
606 0.1564 0.1564 0 -0.0027443 -0.0027443 0.000114049 63.6136 2370.45 1957.42 
646 0.2292 0.2292 0 -0.00723029 -0.00723029 -0.0001502 94.8888 1081.76 2016.7 
686 0.2648 0.2648 0 -0.00944993 -0.00944993 -0.000149903 108.396 1876.88 2363.3 
726 0.2692 0.2692 0 -0.0107054 -0.0107054 -0.000299586 114.209 3530.17 3722.51 
766 0.2772 0.2772 0 -0.0108154 -0.0108154 -3.55701e-05 115.446 3084.88 4309.08 
806 0.255 0.255 0 -0.00926189 -0.00926189 0.000164816 105.077 1085.94 2472.58 
846 0.236 0.236 0 -0.00754562 -0.00754562 2.59446e-05 96.1382 1784.8 2897.31 
886 0.1582 0.1582 0 -0.00315862 -0.00315862 2.49013e-05 64.7303 2864.72 3747.94 
926 0.2838 0.2838 0 -0.00304229 -0.00304229 -4.58376e-05 117.344 4466.4 4842.14 
966 0.6496 0.6496 0 -0.0015753 -0.0015753 7.32486e-05 269.878 9742.91 12674.8 
7 1.3094 1.3094 0 0.00938471 0.00938471 -0.000191419 553.086 26472.7 32830.8 
47 2.291 2.291 0 0.0386739 0.0386739 -9.8207e-05 975.116 44432.3 58952.4 
87 3.9342 3.9342 0 0.103146 0.103146 0.000491036 1728.52 121019 164996 
127 6.2066 6.2066 0 0.198469 0.198469 -0.000121529 2687.3 157837 219699 
167 8.2544 8.2544 0 0.305999 0.305999 -0.000181667 3598.34 214638 309441 
207 9.4838 9.4838 0 0.384256 0.384256 0.000178988 4180.64 273558 402729 
247 9.861 9.861 0 0.414905 0.414905 -0.001132 4402.99 325315 466727 
287 9.3814 9.3814 0 0.385575 0.385575 0.000507165 4173.42 304333 442826 
327 8.0834 8.0834 0 0.305887 0.305887 0.000243615 3549.32 230380 329431 
367 6.2242 6.2242 0 0.209436 0.209436 0.00025754 2747.47 197023 271188 
407 4.3234 4.3234 0 0.113421 0.113421 0.000374564 1863.45 104388 142686 
447 2.4386 2.4386 0 0.0430099 0.0430099 0.000166454 1036.78 49254.5 65051.6 
487 1.3854 1.3854 0 0.0117301 0.0117301 -7.78437e-05 593.678 25386 33703.4 
527 0.7208 0.7208 0 -0.000912274 -0.000912274 7.33647e-05 300.858 11313.4 15140.6 
567 0.3104 0.3104 0 -0.00308207 -0.00308207 -0.000168406 129.702 4521.39 5478.35 
607 0.1642 0.1642 0 -0.00290211 -0.00290211 -6.55537e-05 67.5058 2343.31 3033.39 
647 0.2406 0.2406 0 -0.00765559 -0.00765559 0.00012181 99.5069 996.666 1749.57 
687 0.2602 0.2602 0 -0.00939786 -0.00939786 -7.89935e-05 107.515 1242.15 1136.46 
727 0.2684 0.2684 0 -0.0104476 -0.0104476 1.09937e-05 112.116 2488.64 4364.2 
767 0.2818 0.2818 0 -0.0109063 -0.0109063 0.000287824 116.356 3360.97 4939.8 
807 0.263 0.263 0 -0.00970511 -0.00970511 -0.000113186 109.494 1274.09 1501.25 
847 0.2456 0.2456 0 -0.00783025 -0.00783025 6.5637e-05 101.187 792.316 1215.39 
887 0.1594 0.1594 0 -0.00331825 -0.00331825 2.67337e-05 67.4073 2050.59 2318.44 
927 0.2962 0.2962 0 -0.00327219 -0.00327219 4.70753e-05 122.077 4072.32 5436.12 
967 0.6172 0.6172 0 -0.00087137 -0.00087137 -3.12909e-05 256.151 11201.1 13246.4 
8 1.2798 1.2798 0 0.00950101 0.00950101 -0.00026711 544.426 27489.9 36187.2 
48 2.4676 2.4676 0 0.0429891 0.0429891 0.000472725 1061.01 59506 76551.5 
88 3.7882 3.7882 0 0.0972196 0.0972196 -0.00055355 1639.75 91163.4 126760 
128 5.6306 5.6306 0 0.188447 0.188447 0.000242985 2501.56 190907 263888 
168 7.5538 7.5538 0 0.288508 0.288508 -0.0016931 3367.1 259856 368127 
208 9.3738 9.3738 0 0.377879 0.377879 0.000142021 4115.46 241510 349908 
248 9.8172 9.8172 0 0.413398 0.413398 -0.00134822 4386.41 343508 491484 
288 9.1746 9.1746 0 0.379695 0.379695 0.000582394 4111.17 324484 471896 
328 7.9166 7.9166 0 0.305099 0.305099 0.000725395 3540.7 281105 396594 
368 6.0564 6.0564 0 0.197417 0.197417 0.000559955 2626.45 142596 200939 
408 3.7772 3.7772 0 0.100517 0.100517 -0.000177001 1647.08 100166 137882 
448 2.4604 2.4604 0 0.0418869 0.0418869 -0.000143442 1048.06 48768.2 64673.8 
488 1.3576 1.3576 0 0.010424 0.010424 0.000154732 578.697 24479.1 32500.4 
528 0.691 0.691 0 -0.000799089 -0.000799089 -0.000113386 290.877 10462.9 14216 
568 0.3232 0.3232 0 -0.00344574 -0.00344574 -5.2443e-05 136.337 5457.27 6476.99 
608 0.157 0.157 0 -0.00295561 -0.00295561 -0.00018115 64.3531 2856.25 3321.08 
648 0.233 0.233 0 -0.00732592 -0.00732592 -5.3112e-05 96.4425 2039.01 2635.24 
688 0.2658 0.2658 0 -0.00949292 -0.00949292 8.41791e-05 108.67 1529.86 1844.81 
728 0.2624 0.2624 0 -0.0102062 -0.0102062 -0.00015969 109.472 2507.21 3698.26 
768 0.266 0.266 0 -0.0105129 -0.0105129 -0.000148416 111.94 2765.22 4370.37 
808 0.272 0.272 0 -0.00978063 -0.00978063 -1.56679e-05 111.669 729.203 1448.04 
848 0.247 0.247 0 -0.0076953 -0.0076953 -7.95333e-05 100.126 1353.93 2250.57 
888 0.15 0.15 0 -0.00293795 -0.00293795 7.11711e-06 60.3701 1554.89 1370.41 
928 0.3002 0.3002 0 -0.00305862 -0.00305862 -0.000165323 124.838 6342.26 7901.01 
968 0.605 0.605 0 -0.000349588 -0.000349588 3.84564e-05 253.655 11586.1 15758.2 
9 1.326 1.326 0 0.010171 0.010171 -4.01134e-05 564.533 29534.4 37174.8 
49 2.4606 2.4606 0 0.0447507 0.0447507 -0.000188278 1066.6 65934 86398.3 
89 4.0288 4.0288 0 0.104407 0.104407 -8.82963e-05 1733.63 97470.8 130211 
129 6.2194 6.2194 0 0.19955 0.19955 -0.000410743 2675.76 137859 192589 
169 8.0662 8.0662 0 0.304062 0.304062 0.000205985 3537.97 219301 317896 
209 9.6984 9.6984 0 0.38841 0.38841 -0.000197672 4229.19 240009 346609 
249 9.872 9.872 0 0.417286 0.417286 0.000825118 4427.56 341652 486607 
289 9.648 9.648 0 0.392464 0.392464 0.00147846 4262.67 279860 402753 
329 8.1254 8.1254 0 0.304133 0.304133 -0.000555163 3541.34 201078 287791 
369 5.8792 5.8792 0 0.198676 0.198676 -0.000324471 2617.99 205774 286190 
409 4.0946 4.0946 0 0.10882 0.10882 0.00013078 1789.49 116324 156109 
449 2.3752 2.3752 0 0.0439339 0.0439339 0.000450824 1034.28 66095.7 88070.6 
489 1.3652 1.3652 0 0.0106003 0.0106003 0.000269685 583.837 27924.1 37361.7 
529 0.6656 0.6656 0 -0.00107376 -0.00107376 6.85762e-05 286.41 11447.5 15333.1 
569 0.3104 0.3104 0 -0.00297109 -0.00297109 -9.22545e-05 130.998 4922.26 5689.23 
609 0.162 0.162 0 -0.0030469 -0.0030469 -3.71354e-05 66.9937 2593.08 3407.34 
649 0.2264 0.2264 0 -0.00701321 -0.00701321 4.70138e-05 91.3689 170.705 280.9 
689 0.245 0.245 0 -0.00886445 -0.00886445 6.26175e-05 101.247 1014.75 1667.01 
729 0.2708 0.2708 0 -0.0107107 -0.0107107 -0.000176741 113.982 2185.28 3567.29 
769 0.2766 0.2766 0 -0.01084 -0.01084 -0.00015816 115.45 2310.77 3820.6 
809 0.2556 0.2556 0 -0.00928948 -0.00928948 0.00014544 104.972 1546.25 2214.64 
849 0.245 0.245 0 -0.00766002 -0.00766002 -8.8446e-05 99.6397 1352 1470.76 
889 0.1516 0.1516 0 -0.00276729 -0.00276729 -0.000101039 61.8389 1635.26 2539.48 
929 0.3084 0.3084 0 -0.00301641 -0.00301641 0.000119345 128.608 5027.77 6290.63 
969 0.6488 0.6488 0 -0.000516827 -0.000516827 0.000168083 274.917 11797.1 15526.1 
10 1.3334 1.3334 0 0.0105358 0.0105358 -0.000389716 566.585 27715.3 38529.8 
50 2.3286 2.3286 0 0.0440068 0.0440068 6.4221e-05 1023.71 67116 89582.3 
90 4.1378 4.1378 0 0.110517 0.110517 0.00125333 1815.38 118945 160475 
130 5.879 5.879 0 0.198135 0.198135 0.00023905 2619.3 200328 278059 
170 8.177 8.177 0 0.303375 0.303375 0.000622129 3551.85 193437 280175 
210 9.604 9.604 0 0.389924 0.389924 0.000804538 4230.04 284839 412248 
250 9.7162 9.7162 0 0.411111 0.411111 0.00207359 4362 323121 472833 
290 9.638 9.638 0 0.385685 0.385685 -0.00198476 4197.1 239382 349450 
330 8.0276 8.0276 0 0.302809 0.302809 0.00116981 3540.64 221977 312161 
370 6.2316 6.2316 0 0.199261 0.199261 -0.000443783 2687.23 139391 194488 
410 4.0164 4.0164 0 0.104903 0.104903 0.000104975 1745.31 97512.7 131488 
450 2.44 2.44 0 0.0452014 0.0452014 0.000477534 1050.34 62811.1 83883.7 
490 1.2966 1.2966 0 0.00994847 0.00994847 -0.000301992 553.151 25506 32932.2 
530 0.6514 0.6514 0 -0.000493796 -0.000493796 0.000359236 276.198 12735.1 15802.1 
570 0.2982 0.2982 0 -0.00321276 -0.00321276 -9.37927e-05 126.154 4104.98 5304.74 
610 0.1522 0.1522 0 -0.00279281 -0.00279281 -7.47881e-05 62.843 2047.59 2800.99 
650 0.2342 0.2342 0 -0.00753694 -0.00753694 -0.000100489 97.5032 530.45 1225.76 
690 0.2734 0.2734 0 -0.0097968 -0.0097968 -0.000110899 110.658 3153.75 4028.46 
730 0.2748 0.2748 0 -0.0106884 -0.0106884 9.75687e-05 114.112 3628 4751.28 
770 0.2832 0.2832 0 -0.0110072 -0.0110072 0.000102686 117.744 2918.57 4040.1 
810 0.2544 0.2544 0 -0.0092547 -0.0092547 -9.0127e-05 104.492 4.26257 1225.72 
850 0.2348 0.2348 0 -0.00718317 -0.00718317 3.50864e-05 94.8387 2196.13 2086.61 
890 0.1606 0.1606 0 -0.00294357 -0.00294357 -5.04021e-07 65.0223 2934.8 3294.34 
930 0.3082 0.3082 0 -0.00337782 -0.00337782 4.92806e-05 130.207 5530.84 6493.2 
970 0.6736 0.6736 0 -0.000514946 -0.000514946 -1.51387e-05 281.505 13587.6 16499.1 
11 1.3448 1.3448 0 0.0106212 0.0106212 -8.01161e-05 570.281 22926 32179.9 
51 2.3872 2.3872 0 0.0403147 0.0403147 0.000150414 1024.07 46667.7 62465.3 
91 3.8642 3.8642 0 0.10177 0.10177 -0.00012596 1676.24 99878.6 136589 
131 6.03 6.03 0 0.196904 0.196904 0.000805586 2603.76 147716 205116 
171 7.9602 7.9602 0 0.307023 0.307023 -0.00054031 3553.07 282929 400025 
211 9.1362 9.1362 0 0.379131 0.379131 0.00124357 4105.75 335505 485631 
251 9.875 9.875 0 0.416418 0.416418 -0.000523425 4418.37 336672 481149 
291 9.6832 9.6832 0 0.387596 0.387596 0.000312389 4218.34 248687 358497 
331 7.525 7.525 0 0.286919 0.286919 0.000557808 3347.87 254039 362201 
371 5.636 5.636 0 0.188225 0.188225 0.000692292 2509.36 189069 264491 
411 3.8286 3.8286 0 0.0987571 0.0987571 -0.000419033 1665.17 98784.7 132641 
451 2.375 2.375 0 0.0410278 0.0410278 2.23809e-05 1014 53739.3 71604.5 
491 1.334 1.334 0 0.00990057 0.00990057 0.000192227 562.852 25899.1 34082.4 
531 0.6422 0.6422 0 -0.000587227 -0.000587227 -0.000190261 271.359 12753.7 15746.8 
571 0.3066 0.3066 0 -0.003245 -0.003245 0.000239756 128.731 5694.01 6382.74 
611 0.1488 0.1488 0 -0.00301836 -0.00301836 -7.90715e-05 62.0435 2169.58 3568.72 
651 0.248 0.248 0 -0.00801736 -0.00801736 -8.10133e-05 103.278 274.473 970.891 
691 0.26 0.26 0 -0.00946819 -0.00946819 -5.51047e-05 106.815 1192.91 1585.22 
731 0.2728 0.2728 0 -0.0106298 -0.0106298 0.000104763 113.293 2774.53 4979.26 
771 0.2598 0.2598 0 -0.0102073 -0.0102073 -0.0001087 109.141 2564.2 3488.6 
811 0.2662 0.2662 0 -0.0096592 -0.0096592 -0.000148773 109.281 1824.08 2598.22 
851 0.2254 0.2254 0 -0.00711011 -0.00711011 -0.000194012 93.8194 777.234 1751.6 
891 0.146 0.146 0 -0.00287962 -0.00287962 -0.000140317 60.5016 1829.65 2319.33 
931 0.3202 0.3202 0 -0.00304107 -0.00304107 -0.000198701 133.845 4538.65 6277.79 
971 0.6962 0.6962 0 -0.000706224 -0.000706224 -0.000131771 294.669 9809.03 13106.7 
12 1.3742 1.3742 0 0.0109512 0.0109512 0.000625062 584.203 27768.5 37796.8 
52 2.5334 2.5334 0 0.0452593 0.0452593 0.000427871 1082.45 53749.7 70381.8 
92 4.2876 4.2876 0 0.111131 0.111131 -0.000146852 1840.36 100561 135839 
132 6.1968 6.1968 0 0.207616 0.207616 -0.000608458 2730.27 187847 265147 
172 8.178 8.178 0 0.308738 0.308738 -0.000662664 3585.43 232547 334453 
212 9.4908 9.4908 0 0.392818 0.392818 -0.0011727 4244.39 314083 452743 
252 9.8988 9.8988 0 0.417147 0.417147 0.00197096 4426.2 333698 479371 
292 9.4194 9.4194 0 0.382279 0.382279 0.00134541 4162.46 267527 388762 
332 8.1552 8.1552 0 0.30357 0.30357 -0.0010369 3562.34 211064 301895 
372 6.1894 6.1894 0 0.197663 0.197663 -2.73543e-05 2679.23 153285 213650 
412 3.9176 3.9176 0 0.102778 0.102778 0.00103582 1728.2 125164 169367 
452 2.3678 2.3678 0 0.0400592 0.0400592 -0.000264631 1009.35 47354.9 64190.9 
492 1.3154 1.3154 0 0.00996051 0.00996051 -6.45886e-05 561.824 26222 33697.5 
532 0.606 0.606 0 -0.000893724 -0.000893724 0.000135049 251.958 13073.7 15997 
572 0.29 0.29 0 -0.0031047 -0.0031047 0.000192901 119.518 3814.87 5183.85 
612 0.143 0.143 0 -0.00281106 -0.00281106 0.000218986 58.7545 1360.35 678.775 
652 0.233 0.233 0 -0.00772173 -0.00772173 -5.9116e-05 97.3326 438.73 1714.74 
692 0.2568 0.2568 0 -0.00931383 -0.00931383 -0.000252504 105.552 2644.38 3333.18 
732 0.2778 0.2778 0 -0.0109464 -0.0109464 0.000226555 116.594 2610.31 3900.46 
772 0.268 0.268 0 -0.010562 -0.010562 0.00011901 112.751 2944.04 4114.85 
812 0.2634 0.2634 0 -0.00967728 -0.00967728 -4.47367e-05 109.875 783.766 1364.58 
852 0.2398 0.2398 0 -0.00772078 -0.00772078 -3.12099e-05 100.134 2057.6 2102.68 
892 0.1648 0.1648 0 -0.00293912 -0.00293912 -2.94027e-05 67.8592 3143.34 3416.46 
932 0.3178 0.3178 0 -0.00281452 -0.00281452 0.000204766 133.525 6021.8 5858.35 
972 0.668 0.668 0 -0.00077345 -0.00077345 -0.000344747 278.837 11538.8 15452 
13 1.3794 1.3794 0 0.0118333 0.0118333 6.21919e-05 586.73 26336.3 35554.5 
53 2.6226 2.6226 0 0.0496573 0.0496573 -0.000329637 1128.46 64292.7 86077.8 
93 4.1714 4.1714 0 0.114522 0.114522 -0.000161348 1833.02 125064 169545 
133 5.9948 5.9948 0 0.199874 0.199874 2.24615e-05 2617.4 161232 227780 
173 8.2742 8.2742 0 0.31154 0.31154 0.000515627 3608.09 218079 312630 
213 9.5054 9.5054 0 0.387229 0.387229 -0.000201753 4190.48 274314 403246 
253 9.9096 9.9096 0 0.416507 0.416507 -0.000387593 4419.7 324626 463532 
293 9.1152 9.1152 0 0.372386 0.372386 -8.47177e-05 4059.82 280460 411906 
333 7.8388 7.8388 0 0.292261 0.292261 -0.000428032 3437.44 217805 305308 
373 5.45 5.45 0 0.178554 0.178554 0.000110363 2399.91 162925 226677 
413 4.1184 4.1184 0 0.103039 0.103039 -0.000565044 1772.39 92670.3 122442 
453 2.261 2.261 0 0.0361085 0.0361085 -0.000305961 964.16 43276.9 58585.4 
493 1.2628 1.2628 0 0.00920478 0.00920478 -0.000318607 536.597 24862.9 33596.9 
533 0.6366 0.6366 0 -0.00174598 -0.00174598 0.000501697 268.885 11145.7 14645.2 
573 0.2824 0.2824 0 -0.00309748 -0.00309748 -0.000152948 118.59 3968.84 5072.6 
613 0.1542 0.1542 0 -0.00291135 -0.00291135 0.000163722 62.5792 2758.85 3877.15 
653 0.2616 0.2616 0 -0.00855782 -0.00855782 1.87974e-06 107.952 1223.08 2067.23 
693 0.2666 0.2666 0 -0.00955914 -0.00955914 -0.00013892 107.809 1520.2 2537.58 
733 0.2654 0.2654 0 -0.0104622 -0.0104622 -7.06751e-05 111.119 2482.77 3706 
773 0.2828 0.2828 0 -0.0111645 -0.0111645 -7.54971e-05 119.118 2299.07 2789.86 
813 0.2614 0.2614 0 -0.00947698 -0.00947698 -8.68401e-05 108.304 470.838 644.653 
853 0.2436 0.2436 0 -0.0074349 -0.0074349 -7.64591e-05 97.5227 2176.36 2273.44 
893 0.16 0.16 0 -0.00292412 -0.00292412 4.34138e-05 65.673 3129.86 3782.05 
933 0.3394 0.3394 0 -0.00331808 -0.00331808 -0.000276464 141.326 4696.99 6745.44 
973 0.6776 0.6776 0 -0.000730271 -0.000730271 3.18141e-05 283.639 11330.7 15185.9 
14 1.3758 1.3758 0 0.0125061 0.0125061 0.00020506 581.919 25002.6 33299.6 
54 2.6482 2.6482 0 0.0515611 0.0515611 -0.000308776 1155.29 68499.7 92945.2 
94 4.082 4.082 0 0.109136 0.109136 0.000392097 1765.84 103034 142148 
134 6.4662 6.4662 0 0.21634 0.21634 0.000586946 2833.82 171133 241108 
174 8.1926 8.1926 0 0.31078 0.31078 -0.000294278 3587.13 234394 334973 
214 9.6266 9.6266 0 0.392119 0.392119 -0.000632706 4237.77 278950 396871 
254 9.91 9.91 0 0.412769 0.412769 -0.00184226 4381.43 296982 436449 
294 9.1844 9.1844 0 0.376034 0.376034 -0.000281265 4098.79 311862 445272 
334 7.7418 7.7418 0 0.29013 0.29013 -0.000687822 3421.07 231580 325102 
374 5.9868 5.9868 0 0.192802 0.192802 -0.000642624 2622.97 167938 232424 
414 3.556 3.556 0 0.0900833 0.0900833 -0.000635842 1544.33 90835.9 125335 
454 2.147 2.147 0 0.0346581 0.0346581 0.000899394 932.192 54490.4 72447.3 
494 1.2682 1.2682 0 0.00881519 0.00881519 -0.000558914 537.405 27636.1 37676.7 
534 0.6184 0.6184 0 -0.00164451 -0.00164451 -0.00024191 262.057 9972.84 12287.1 
574 0.2914 0.2914 0 -0.00327979 -0.00327979 -5.92479e-05 120.916 3762.35 5306.26 
614 0.1516 0.1516 0 -0.00310298 -0.00310298 -3.19861e-05 62.2603 1758 2613.26 
654 0.2346 0.2346 0 -0.00743928 -0.00743928 0.00020065 96.073 -1.13806 93.7478 
694 0.257 0.257 0 -0.00950452 -0.00950452 0.000166397 106.834 1796.47 2555.95 
734 0.2738 0.2738 0 -0.0107162 -0.0107162 -0.000100096 114.057 3069.53 4689.48 
774 0.2574 0.2574 0 -0.0100112 -0.0100112 -0.000165933 107.183 2545.67 2992.53 
814 0.2652 0.2652 0 -0.00953006 -0.00953006 -4.48401e-05 109.805 1769.91 2439.34 
854 0.2378 0.2378 0 -0.00725497 -0.00725497 0.000114027 96.1176 1199.1 1805.85 
894 0.1588 0.1588 0 -0.00292188 -0.00292188 -6.21897e-05 66.0927 2726.27 2813.97 
934 0.3302 0.3302 0 -0.00270626 -0.00270626 0.000158337 137.767 5439.44 6830.32 
974 0.747 0.747 0 -0.00035869 -0.00035869 -0.000316595 313.653 13400.4 16367 
15 1.413 1.413 0 0.0134982 0.0134982 -7.6251e-05 605.286 25533.6 33060.6 
55 2.4866 2.4866 0 0.0483682 0.0483682 0.000749755 1090.21 68680 94656.2 
95 4.4206 4.4206 0 0.119394 0.119394 -0.000459471 1909.38 103512 146384 
135 5.985 5.985 0 0.203348 0.203348 0.000686071 2645.29 180622 249602 
175 7.9222 7.9222 0 0.307813 0.307813 -0.000102872 3527.15 266484 379490 
215 9.783 9.783 0 0.397364 0.397364 0.00162058 4290.55 251212 365509 
255 9.9532 9.9532 0 0.417088 0.417088 -0.000117709 4427.15 302553 433147 
295 9.279 9.279 0 0.377038 0.377038 -0.00103498 4126.58 296514 420085 
335 7.8774 7.8774 0 0.293539 0.293539 -0.000650449 3481.49 232291 331384 
375 5.5848 5.5848 0 0.179101 0.179101 0.000442972 2436.31 148706 205582 
415 3.8486 3.8486 0 0.0967705 0.0967705 -8.95707e-05 1675.29 108027 145771 
455 2.3442 2.3442 0 0.039877 0.039877 -0.000189742 1005.97 60777.7 81253.5 
495 1.2406 1.2406 0 0.00924911 0.00924911 -0.000260906 533.08 24262.9 31710.9 
535 0.599 0.599 0 -0.00178193 -0.00178193 -0.000184578 252.171 11711.1 13558 
575 0.2728 0.2728 0 -0.0029693 -0.0029693 -4.13166e-05 111.893 4884.38 5484.34 
615 0.1576 0.1576 0 -0.00347903 -0.00347903 -8.35005e-05 65.7436 1774.06 2296.07 
655 0.2498 0.2498 0 -0.00799606 -0.00799606 -8.16764e-05 102.659 1730.85 2169.37 
695 0.2548 0.2548 0 -0.00933055 -0.00933055 0.000388153 105.129 1373.68 1583.19 
735 0.2754 0.2754 0 -0.0107471 -0.0107471 -9.49075e-05 114.372 3186.5 4702.16 
775 0.2672 0.2672 0 -0.0104508 -0.0104508 -4.25111e-05 112.038 1733.36 2221.35 
815 0.264 0.264 0 -0.00935481 -0.00935481 -3.63023e-05 108.075 2253.87 2676.89 
855 0.2244 0.2244 0 -0.00682066 -0.00682066 -1.95187e-06 91.2754 1299.24 1855.49 
895 0.1544 0.1544 0 -0.0026237 -0.0026237 1.42786e-05 63.7978 2452.49 3068.03 
935 0.342 0.342 0 -0.00327815 -0.00327815 7.43848e-05 144.469 6086.33 6504.74 
975 0.7458 0.7458 0 -0.000248239 -0.000248239 0.000186309 314.273 11626.7 15066.2 
16 1.4676 1.4676 0 0.0140229 0.0140229 3.52997e-05 626.755 27531.5 36336.9 
56 2.614 2.614 0 0.0473946 0.0473946 -0.000353649 1112.86 48516 65691 
96 4.2758 4.2758 0 0.120343 0.120343 -0.000561283 1880.15 130417 179232 
136 6.6884 6.6884 0 0.223749 0.223749 -0.00081736 2904.58 177065 248168 
176 8.4468 8.4468 0 0.32104 0.32104 0.00106994 3693.45 224325 323051 
216 9.6936 9.6936 0 0.392365 0.392365 -0.000140454 4233.06 232357 344153 
256 10.004 10.004 0 0.417575 0.417575 -0.000721727 4433.54 280876 408341 
296 9.3908 9.3908 0 0.373039 0.373039 0.000630417 4089.2 227959 334564 
336 7.7364 7.7364 0 0.283151 0.283151 0.00233322 3364.42 191480 272770 
376 5.81 5.81 0 0.185802 0.185802 5.72207e-05 2541.18 173249 241240 
416 3.8764 3.8764 0 0.0958635 0.0958635 0.000838436 1679.08 94093.3 130562 
456 2.2748 2.2748 0 0.0384899 0.0384899 -0.000225434 973.654 57096.2 73912.7 
496 1.226 1.226 0 0.0092002 0.0092002 6.73417e-05 526.615 26933.8 36148 
536 0.587 0.587 0 -0.00179512 -0.00179512 0.000209849 246.003 9925.95 13099.9 