ITEM: TIMESTEP
25000
ITEM: NUMBER OF SURFS
1000
ITEM: BOX BOUNDS oo rr pp
0 0.3
0 0.3
-0.5 0.5
ITEM: SURFS id f_4[1] f_4[2] f_4[3] f_4[4] f_4[5] f_4[6] f_4[7] f_4[8] f_4[9] 
1 1.0674 1.0674 0 0.000262998 0.000262998 -9.34282e-06 5.05302 1698.98 2239.61 
41 1.9076 1.9076 0 0.000600228 0.000600228 -6.61758e-07 9.65536 2868.25 3746.97 
81 3.1738 3.1738 0 0.00122989 0.00122989 9.6089e-07 16.6681 4796.14 6340.13 
121 4.7392 4.7392 0 0.00207336 0.00207336 -9.76472e-06 25.489 6862.96 9241.25 
161 6.403 6.403 0 0.00308393 0.00308393 -7.03416e-06 35.1031 9079.29 12425.9 
201 7.696 7.696 0 0.00393146 0.00393146 2.05893e-05 42.5637 10700.5 14689.9 
241 8.2892 8.2892 0 0.00434723 0.00434723 -1.66051e-05 46.1542 11504.5 15793.2 
281 8.0644 8.0644 0 0.00418539 0.00418539 -1.59627e-06 44.7757 11270.7 15387 
321 7.0342 7.0342 0 0.00349917 0.00349917 5.77054e-06 38.7314 9971.86 13575.4 
361 5.4582 5.4582 0 0.00251195 0.00251195 -4.22191e-06 29.7218 7834.8 10650.1 
401 3.7806 3.7806 0 0.00156359 0.00156359 -2.63942e-06 20.1678 5566.02 7453.51 
441 2.4006 2.4006 0 0.000837316 0.000837316 2.22631e-06 12.3086 3637.56 4870.89 
481 1.366 1.366 0 0.000384902 0.000384902 -2.10641e-06 6.70719 2119.15 2804.61 
521 0.6798 0.6798 0 0.000133449 0.000133449 -1.25175e-06 3.10612 1051.14 1376.66 
561 0.3118 0.3118 0 3.10219e-05 3.10219e-05 -1.17094e-06 1.33002 442.667 599.036 
601 0.118 0.118 0 -9.96998e-09 -9.96998e-09 -1.28374e-06 0.447909 141.611 197.108 
641 0.052 0.052 0 -6.70829e-06 -6.70829e-06 -2.50124e-07 0.184236 54.0178 77.9647 
681 0.028 0.028 0 -7.68206e-06 -7.68206e-06 3.40376e-07 0.102803 19.0906 32.7331 
721 0.0248 0.0248 0 -9.08415e-06 -9.08415e-06 4.30871e-07 0.0983149 6.01758 20.8227 
761 0.0212 0.0212 0 -8.32786e-06 -8.32786e-06 -5.10498e-07 0.0889633 4.54838 13.8132 
801 0.0228 0.0228 0 -7.26321e-06 -7.26321e-06 4.73446e-07 0.0931194 10.8784 27.0456 
841 0.0396 0.0396 0 -7.33598e-06 -7.33598e-06 -1.4971e-07 0.146509 34.4208 52.3467 
881 0.0834 0.0834 0 -4.47573e-06 -4.47573e-06 -8.51644e-07 0.312446 97.1485 146.167 
921 0.2166 0.2166 0 1.3551e-05 1.3551e-05 1.66205e-06 0.872904 299.655 404.087 
961 0.5078 0.5078 0 8.42683e-05 8.42683e-05 -2.40888e-06 2.24845 767.126 1015.19 
2 1.0526 1.0526 0 0.000264227 0.000264227 9.00624e-07 5.01702 1673.58 2166.74 
42 1.9512 1.9512 0 0.000626386 0.000626386 -1.82754e-06 9.865 3030.26 3985.63 
82 3.2642 3.2642 0 0.0012725 0.0012725 3.95944e-06 17.1543 4944.94 6550.82 
122 4.7766 4.7766 0 0.00210862 0.00210862 -2.32744e-07 25.8262 6945.3 9379.57 
162 6.4822 6.4822 0 0.00313201 0.00313201 4.83286e-06 35.4931 9082.01 12415.9 
202 7.733 7.733 0 0.00394401 0.00394401 6.1185e-06 42.659 10732.3 14686.4 
242 8.3466 8.3466 0 0.00435924 0.00435924 1.22121e-05 46.2825 11385.5 15629.7 
282 8.0526 8.0526 0 0.00416623 0.00416623 1.59347e-05 44.6286 11163.9 15348.6 
322 6.9932 6.9932 0 0.00345395 0.00345395 8.68515e-06 38.415 9651.29 13222.7 
362 5.4344 5.4344 0 0.00249283 0.00249283 -6.61122e-06 29.6413 7743.48 10506.3 
402 3.7526 3.7526 0 0.00152466 0.00152466 2.18219e-06 19.8994 5653.08 7473.66 
442 2.3342 2.3342 0 0.000808691 0.000808691 -2.01238e-06 11.9579 3443.99 4565.01 
482 1.3496 1.3496 0 0.000373443 0.000373443 5.00061e-06 6.64251 2132.09 2766 
522 0.699 0.699 0 0.000140563 0.000140563 5.7126e-07 3.22751 1122.91 1474.88 
562 0.3146 0.3146 0 2.84755e-05 2.84755e-05 -1.39083e-06 1.35752 423.208 564.979 
602 0.1206 0.1206 0 2.07596e-06 2.07596e-06 5.45529e-07 0.460962 159.11 212.566 
642 0.0462 0.0462 0 -5.21211e-06 -5.21211e-06 -1.89379e-06 0.169364 45.2644 62.651 
682 0.0262 0.0262 0 -7.14677e-06 -7.14677e-06 -6.91164e-08 0.098623 14.4185 21.1461 
722 0.0258 0.0258 0 -9.91144e-06 -9.91144e-06 -3.22683e-07 0.107135 13.3718 24.3236 
762 0.023 0.023 0 -8.7745e-06 -8.7745e-06 -6.42345e-07 0.0935958 8.47846 21.122 
802 0.023 0.023 0 -7.05086e-06 -7.05086e-06 -6.12556e-07 0.0836739 17.9909 28.4735 
842 0.042 0.042 0 -7.79297e-06 -7.79297e-06 7.58424e-07 0.152322 36.2341 52.6315 
882 0.09 0.09 0 -2.10406e-06 -2.10406e-06 -1.56881e-06 0.340448 106.449 146.708 
922 0.2178 0.2178 0 1.70215e-05 1.70215e-05 2.17875e-06 0.900078 335.726 453.415 
962 0.5038 0.5038 0 8.52884e-05 8.52884e-05 -2.42698e-06 2.24602 783.665 1042.17 
3 1.078 1.078 0 0.00027105 0.00027105 -1.64428e-06 5.17586 1711.72 2254.35 
43 1.9622 1.9622 0 0.000632524 0.000632524 -4.4536e-07 9.89011 3029.99 4063.25 
83 3.2924 3.2924 0 0.00126261 0.00126261 -8.33769e-06 17.2673 4880.3 6575.94 
123 4.856 4.856 0 0.00214258 0.00214258 -1.56561e-06 26.0624 7020.02 9446.39 
163 6.5168 6.5168 0 0.00314486 0.00314486 7.09376e-06 35.6237 9054.56 12342.8 
203 7.7142 7.7142 0 0.00395155 0.00395155 -2.96534e-06 42.7611 10664.4 14559.8 
243 8.3582 8.3582 0 0.00436618 0.00436618 -6.52497e-06 46.3423 11419 15597.2 
283 8.0364 8.0364 0 0.00416652 0.00416652 9.55435e-06 44.6762 11224.5 15402.3 
323 6.9476 6.9476 0 0.00344457 0.00344457 5.18085e-06 38.3437 9665.62 13213.5 
363 5.4012 5.4012 0 0.00249488 0.00249488 -6.48356e-06 29.5544 7812.38 10505.1 
403 3.791 3.791 0 0.00154135 0.00154135 1.06935e-05 20.1392 5557.11 7488.56 
443 2.304 2.304 0 0.000806451 0.000806451 5.71378e-07 11.896 3533.15 4649.19 
483 1.281 1.281 0 0.000350669 0.000350669 1.01092e-05 6.21575 1998.82 2624.06 
523 0.6798 0.6798 0 0.000130913 0.000130913 3.74122e-06 3.06801 1067.29 1396.01 
563 0.3088 0.3088 0 2.77375e-05 2.77375e-05 -4.35326e-06 1.29913 419.131 554.607 
603 0.1236 0.1236 0 2.03021e-06 2.03021e-06 1.41742e-06 0.477699 166.982 217.73 
643 0.0482 0.0482 0 -6.70267e-06 -6.70267e-06 7.59778e-07 0.185547 45.8015 65.2101 
683 0.0234 0.0234 0 -6.64647e-06 -6.64647e-06 7.08821e-08 0.0892163 11.6688 20.9074 
723 0.0238 0.0238 0 -8.5837e-06 -8.5837e-06 7.16103e-07 0.0937457 11.119 23.612 
763 0.021 0.021 0 -7.74173e-06 -7.74173e-06 -1.96631e-07 0.0830113 7.57061 18.6366 
803 0.0196 0.0196 0 -6.36237e-06 -6.36237e-06 -7.96033e-07 0.0765037 11.53 20.995 
843 0.036 0.036 0 -6.44582e-06 -6.44582e-06 4.52795e-07 0.134876 33.1953 52.1999 
883 0.08 0.08 0 -3.11602e-06 -3.11602e-06 3.96133e-07 0.306806 95.1426 131.606 
923 0.2128 0.2128 0 1.37844e-05 1.37844e-05 -1.17327e-06 0.871937 299.599 400.617 
963 0.517 0.517 0 8.41398e-05 8.41398e-05 2.9451e-06 2.27713 787.715 1026.62 
4 1.1202 1.1202 0 0.000280013 0.000280013 -4.13356e-06 5.35488 1759.91 2313.96 
44 1.9868 1.9868 0 0.000631534 0.000631534 7.62676e-06 10.1057 3063.05 4067.5 
84 3.2874 3.2874 0 0.00128206 0.00128206 -2.90618e-06 17.3654 4930.54 6464.57 
124 4.9296 4.9296 0 0.00217657 0.00217657 1.35125e-06 26.5463 7098.6 9626.18 
164 6.5028 6.5028 0 0.00314445 0.00314445 1.15109e-05 35.6272 9157.03 12469.1 
204 7.7172 7.7172 0 0.00395578 0.00395578 5.55968e-06 42.7227 10771 14878 
244 8.3108 8.3108 0 0.00432505 0.00432505 -3.89346e-06 45.9061 11300 15529.5 
284 7.97 7.97 0 0.00410024 0.00410024 -1.82234e-05 43.9727 10834.1 14890.1 
324 6.8954 6.8954 0 0.00341914 0.00341914 -8.0785e-06 37.9778 9547.58 13185.1 
364 5.2596 5.2596 0 0.00240101 0.00240101 -6.60181e-06 28.5925 7646.07 10376.1 
404 3.7596 3.7596 0 0.00152007 0.00152007 8.2826e-06 20.0093 5493.83 7382.7 
444 2.2934 2.2934 0 0.000790357 0.000790357 -2.57319e-06 11.7665 3489.68 4616.32 
484 1.3326 1.3326 0 0.000365278 0.000365278 2.89072e-07 6.48832 2042.16 2729.36 
524 0.6168 0.6168 0 0.000121931 0.000121931 4.32975e-06 2.83244 998.862 1311.65 
564 0.2936 0.2936 0 2.53878e-05 2.53878e-05 2.88218e-06 1.2542 399.551 535.268 
604 0.115 0.115 0 -1.39316e-07 -1.39316e-07 2.77866e-06 0.449193 153.037 209.289 
644 0.0472 0.0472 0 -6.08601e-06 -6.08601e-06 4.75157e-07 0.180079 47.3348 69.2916 
684 0.0282 0.0282 0 -7.8923e-06 -7.8923e-06 -3.15607e-07 0.10374 14.3521 26.238 
724 0.0238 0.0238 0 -8.58851e-06 -8.58851e-06 2.62705e-08 0.0945541 13.5659 29.2302 
764 0.0244 0.0244 0 -9.06785e-06 -9.06785e-06 -2.22985e-07 0.0972752 13.7596 21.9409 
804 0.0236 0.0236 0 -7.95249e-06 -7.95249e-06 -1.84737e-07 0.0961377 9.90135 20.4558 
844 0.0316 0.0316 0 -4.90714e-06 -4.90714e-06 -2.19225e-08 0.112433 19.3841 34.4728 
884 0.0944 0.0944 0 -4.68547e-06 -4.68547e-06 5.58137e-07 0.358054 100.358 137.978 
924 0.2268 0.2268 0 1.95332e-05 1.95332e-05 3.15252e-06 0.935959 350.245 454.014 
964 0.5406 0.5406 0 9.07306e-05 9.07306e-05 -2.44749e-07 2.3999 798.698 1068.43 
5 1.0882 1.0882 0 0.000269589 0.000269589 -3.87561e-06 5.21966 1659.77 2184.24 
45 1.9978 1.9978 0 0.000646485 0.000646485 9.14181e-06 10.1183 3017.08 4030.17 
85 3.3622 3.3622 0 0.00131232 0.00131232 6.48852e-06 17.713 4960.49 6651.89 
125 4.9084 4.9084 0 0.00217909 0.00217909 -4.62978e-06 26.3903 7032.5 9505.22 
165 6.579 6.579 0 0.00320479 0.00320479 -2.69083e-05 36.1061 9244.87 12684.5 
205 7.802 7.802 0 0.00401026 0.00401026 8.58354e-06 43.3046 10954.3 14945.4 
245 8.4156 8.4156 0 0.00440049 0.00440049 -2.69107e-06 46.6968 11596.6 15941.4 
285 7.9922 7.9922 0 0.00411614 0.00411614 1.93764e-06 44.1428 11107.7 15178.3 
325 6.8024 6.8024 0 0.00336316 0.00336316 1.03956e-05 37.5406 9624.26 13111.7 
365 5.3194 5.3194 0 0.00242156 0.00242156 7.70379e-06 28.9174 7753.08 10439.7 
405 3.6772 3.6772 0 0.00148251 0.00148251 3.48933e-06 19.5026 5385.33 7228.38 
445 2.2592 2.2592 0 0.000781352 0.000781352 -6.49349e-06 11.674 3535.62 4656.34 
485 1.2812 1.2812 0 0.000351562 0.000351562 3.18294e-06 6.22089 2054.88 2686.74 
525 0.6528 0.6528 0 0.00012451 0.00012451 8.90021e-08 2.92156 1004.53 1319.34 
565 0.295 0.295 0 2.85801e-05 2.85801e-05 3.40316e-06 1.23534 427.265 564.031 
605 0.1222 0.1222 0 1.62315e-07 1.62315e-07 -1.63793e-07 0.481346 166.502 219.902 
645 0.0476 0.0476 0 -6.80955e-06 -6.80955e-06 -9.52402e-08 0.179428 46.001 63.7165 
685 0.0244 0.0244 0 -6.6824e-06 -6.6824e-06 -2.42582e-07 0.0864893 9.7306 22.6199 
725 0.0204 0.0204 0 -6.77487e-06 -6.77487e-06 -8.01977e-07 0.0728819 10.0022 16.3567 
765 0.025 0.025 0 -9.1911e-06 -9.1911e-06 -1.91935e-07 0.0982395 13.1999 24.672 
805 0.0214 0.0214 0 -6.79612e-06 -6.79612e-06 4.35749e-07 0.0828219 14.9595 26.9026 
845 0.0418 0.0418 0 -8.88663e-06 -8.88663e-06 -8.9728e-07 0.161912 30.5105 52.9641 
885 0.0904 0.0904 0 -3.66715e-06 -3.66715e-06 1.49431e-06 0.347074 100.52 136.373 
925 0.2382 0.2382 0 1.95138e-05 1.95138e-05 6.03442e-07 0.977378 338.737 448.24 
965 0.5258 0.5258 0 9.13317e-05 9.13317e-05 3.85901e-06 2.35748 816.304 1099.63 
6 1.1266 1.1266 0 0.000292013 0.000292013 -4.13416e-06 5.44021 1845.02 2401.59 
46 2.0564 2.0564 0 0.000666125 0.000666125 -3.20932e-06 10.3819 3089.15 4097.52 
86 3.382 3.382 0 0.001323 0.001323 -6.18023e-06 17.7866 5100.95 6796.44 
126 4.977 4.977 0 0.00221611 0.00221611 -3.54666e-06 26.7684 7156.22 9692.09 
166 6.529 6.529 0 0.00316953 0.00316953 2.37939e-06 35.703 9151.22 12455.5 
206 7.847 7.847 0 0.00403446 0.00403446 5.86869e-06 43.5039 10852.2 14788.5 
246 8.3936 8.3936 0 0.00437748 0.00437748 -3.22688e-06 46.4552 11410.8 15719 
286 7.983 7.983 0 0.00411203 0.00411203 1.55452e-06 44.135 11076.9 15169.3 
326 6.8198 6.8198 0 0.00333603 0.00333603 -1.03311e-07 37.2754 9386.99 12829.8 
366 5.211 5.211 0 0.00236896 0.00236896 -7.09708e-06 28.2874 7414.6 10136.9 
406 3.602 3.602 0 0.00144956 0.00144956 6.6108e-07 19.1606 5334.5 7147.81 
446 2.2738 2.2738 0 0.000779249 0.000779249 -7.59331e-06 11.6104 3494.65 4635.95 
486 1.2568 1.2568 0 0.000338171 0.000338171 3.61548e-06 6.15694 1997.8 2626.84 
526 0.6346 0.6346 0 0.000112663 0.000112663 1.29504e-06 2.90932 973.999 1252.91 
566 0.2808 0.2808 0 2.40194e-05 2.40194e-05 2.27443e-06 1.19227 400.532 536.019 
606 0.115 0.115 0 -2.08444e-07 -2.08444e-07 -3.2653e-07 0.447829 142.327 194.039 
646 0.0438 0.0438 0 -7.37064e-06 -7.37064e-06 9.10711e-07 0.161672 28.7326 43.685 
686 0.0278 0.0278 0 -8.17699e-06 -8.17699e-06 -5.78235e-07 0.111237 16.8355 31.6883 
726 0.0222 0.0222 0 -8.14402e-06 -8.14402e-06 -3.01976e-07 0.0892241 9.49453 19.3918 
766 0.0214 0.0214 0 -7.92277e-06 -7.92277e-06 5.26019e-07 0.0846131 10.2909 17.2303 
806 0.024 0.024 0 -6.67823e-06 -6.67823e-06 4.78435e-07 0.0859594 10.0042 19.3496 
846 0.0362 0.0362 0 -6.94751e-06 -6.94751e-06 2.21769e-07 0.133112 31.4934 47.3114 
886 0.094 0.094 0 -3.55149e-06 -3.55149e-06 -2.91328e-06 0.36315 119.317 161.979 
926 0.248 0.248 0 2.11387e-05 2.11387e-05 7.17382e-07 1.01213 351.398 485.813 
966 0.5542 0.5542 0 9.26786e-05 9.26786e-05 2.19479e-06 2.50254 833.36 1103.39 
7 1.1442 1.1442 0 0.000290667 0.000290667 6.85841e-06 5.51033 1770.33 2337.57 
47 2.0814 2.0814 0 0.000687017 0.000687017 -9.72107e-06 10.5861 3180.12 4192.87 
87 3.4162 3.4162 0 0.00133951 0.00133951 4.60912e-06 17.9747 5112.13 6825.54 
127 4.987 4.987 0 0.00222254 0.00222254 1.0179e-05 26.9277 7126.85 9603.38 
167 6.656 6.656 0 0.00324688 0.00324688 1.33731e-05 36.5016 9360.76 12736.9 
207 7.8984 7.8984 0 0.00405678 0.00405678 3.17005e-05 43.7085 10931.6 15012.9 
247 8.4072 8.4072 0 0.00438024 0.00438024 1.92448e-05 46.4786 11663.6 15931.2 
287 7.9374 7.9374 0 0.00408265 0.00408265 9.6741e-06 43.8369 11028.4 15202.6 
327 6.7758 6.7758 0 0.00334097 0.00334097 -1.57568e-05 37.3395 9554.92 13024.7 
367 5.2038 5.2038 0 0.00234355 0.00234355 -2.95242e-06 28.0839 7383.52 10080.9 
407 3.6178 3.6178 0 0.00145506 0.00145506 5.54817e-06 19.1289 5416.46 7245.86 
447 2.2086 2.2086 0 0.000745494 0.000745494 1.66204e-06 11.3632 3352.51 4442.7 
487 1.2532 1.2532 0 0.000333747 0.000333747 3.74299e-06 6.08668 1984.3 2645.88 
527 0.6362 0.6362 0 0.000115325 0.000115325 1.16069e-06 2.86109 985.264 1305.04 
567 0.2792 0.2792 0 2.75967e-05 2.75967e-05 1.10759e-06 1.1573 417.969 539.139 
607 0.1034 0.1034 0 -2.21537e-06 -2.21537e-06 -7.03769e-07 0.40622 132.96 181.091 
647 0.0474 0.0474 0 -7.78888e-06 -7.78888e-06 -2.86227e-07 0.17715 39.4763 67.1808 
687 0.024 0.024 0 -6.93304e-06 -6.93304e-06 -7.91618e-07 0.0892529 11.7904 25.4225 
727 0.021 0.021 0 -7.43725e-06 -7.43725e-06 2.67213e-07 0.0800013 7.51776 18.3529 
767 0.0226 0.0226 0 -8.4355e-06 -8.4355e-06 -3.15011e-07 0.0910524 11.8582 22.8591 
807 0.024 0.024 0 -6.7155e-06 -6.7155e-06 -8.84214e-08 0.0825713 15.1622 26.8252 
847 0.0384 0.0384 0 -6.08367e-06 -6.08367e-06 1.358e-07 0.143924 33.5949 56.1802 
887 0.1004 0.1004 0 -1.95342e-06 -1.95342e-06 2.00448e-06 0.379756 122.213 172.982 
927 0.2488 0.2488 0 2.19621e-05 2.19621e-05 5.65566e-07 1.03222 387.905 500.284 
967 0.5682 0.5682 0 9.60159e-05 9.60159e-05 1.35161e-06 2.50692 850.96 1121.84 
8 1.169 1.169 0 0.00030471 0.00030471 -8.01556e-06 5.58017 1821.55 2433.19 
48 2.1202 2.1202 0 0.000700853 0.000700853 -3.44267e-06 10.8191 3225.28 4283.04 
88 3.4142 3.4142 0 0.00134485 0.00134485 -5.62208e-06 17.9689 5034.15 6755.44 
128 5.0218 5.0218 0 0.00224659 0.00224659 6.43087e-06 27.1318 7323.67 9944.95 
168 6.669 6.669 0 0.00324186 0.00324186 -8.62978e-06 36.4534 9263.2 12651.9 
208 7.8716 7.8716 0 0.00401931 0.00401931 1.31241e-05 43.2678 10903.3 15086.1 
248 8.3356 8.3356 0 0.0043586 0.0043586 -9.41415e-07 46.2501 11610.9 15924.8 
288 7.9372 7.9372 0 0.00408462 0.00408462 1.92097e-06 43.8453 11027.6 15022.4 
328 6.7354 6.7354 0 0.00331731 0.00331731 1.42222e-06 37.0909 9520.45 12965.3 
368 5.1954 5.1954 0 0.00234286 0.00234286 1.64588e-05 28.1381 7462.37 10070.3 
408 3.5146 3.5146 0 0.00139882 0.00139882 1.35966e-06 18.5735 5172.44 6965.27 
448 2.1786 2.1786 0 0.000732433 0.000732433 7.20864e-06 11.1895 3311.84 4447.71 
488 1.21 1.21 0 0.000315465 0.000315465 2.37158e-06 5.84651 1843.5 2462.35 
528 0.6236 0.6236 0 0.000111352 0.000111352 1.28367e-06 2.80912 961.013 1288.61 
568 0.2858 0.2858 0 2.40149e-05 2.40149e-05 -2.21393e-06 1.19765 410.211 547.33 
608 0.1076 0.1076 0 -2.58659e-06 -2.58659e-06 -1.35114e-06 0.40701 131.812 188.666 
648 0.0466 0.0466 0 -6.41635e-06 -6.41635e-06 -2.17593e-07 0.165686 43.4713 64.1341 
688 0.0222 0.0222 0 -6.49985e-06 -6.49985e-06 2.70623e-07 0.0852123 8.89567 19.3525 
728 0.0266 0.0266 0 -9.74682e-06 -9.74682e-06 2.64346e-07 0.104356 13.8881 23.7963 
768 0.0186 0.0186 0 -6.61265e-06 -6.61265e-06 3.70777e-07 0.0706432 5.46215 14.1774 
808 0.0222 0.0222 0 -6.49922e-06 -6.49922e-06 -9.1984e-08 0.0791697 12.7745 25.5043 
848 0.0394 0.0394 0 -5.08773e-06 -5.08773e-06 -7.01384e-08 0.139102 46.0693 64.6979 
888 0.096 0.096 0 -1.96915e-06 -1.96915e-06 -4.46461e-07 0.365834 124.916 173.47 
928 0.2484 0.2484 0 2.20715e-05 2.20715e-05 -2.8927e-06 1.02621 367.037 472.06 
968 0.602 0.602 0 0.000108589 0.000108589 4.24004e-06 2.69545 923.796 1207.64 
9 1.16 1.16 0 0.000298412 0.000298412 -7.79817e-07 5.61519 1755.96 2308.98 
49 2.1204 2.1204 0 0.000706812 0.000706812 1.02752e-05 10.7472 3313.14 4336.15 
89 3.4742 3.4742 0 0.00137018 0.00137018 -6.07249e-06 18.355 5129.58 6849.89 
129 5.1086 5.1086 0 0.00228795 0.00228795 6.27681e-06 27.545 7392.33 10019.8 
169 6.6514 6.6514 0 0.00326061 0.00326061 -2.16942e-05 36.5598 9354.22 12727.8 
209 7.9222 7.9222 0 0.00408671 0.00408671 -2.68161e-06 43.9151 11201.8 15338.6 
249 8.4008 8.4008 0 0.00438332 0.00438332 5.76561e-07 46.5089 11539.5 15917.3 
289 7.9392 7.9392 0 0.00408751 0.00408751 1.49835e-05 43.9359 11038.5 15127.4 
329 6.7264 6.7264 0 0.00329092 0.00329092 7.20013e-06 36.8511 9488.73 12891.4 
369 5.1274 5.1274 0 0.0022978 0.0022978 2.09732e-05 27.747 7182.28 9766.64 
409 3.5108 3.5108 0 0.00139058 0.00139058 -2.08233e-06 18.5421 5208.59 6965.39 
449 2.174 2.174 0 0.00073226 0.00073226 4.264e-06 11.1216 3436.67 4530.91 
489 1.2104 1.2104 0 0.000307945 0.000307945 2.25494e-06 5.85963 1778.03 2358.14 
529 0.6032 0.6032 0 0.000106765 0.000106765 1.72127e-06 2.73663 930.333 1234.94 
569 0.2598 0.2598 0 2.33975e-05 2.33975e-05 -4.31503e-08 1.0742 382.298 512.441 
609 0.0948 0.0948 0 -1.42395e-06 -1.42395e-06 1.13107e-06 0.36546 128.834 168.464 
649 0.0432 0.0432 0 -6.5021e-06 -6.5021e-06 -3.91906e-07 0.1573 35.8267 53.968 
689 0.0222 0.0222 0 -6.77751e-06 -6.77751e-06 2.28055e-07 0.0881552 14.0458 24.7983 
729 0.0206 0.0206 0 -8.14594e-06 -8.14594e-06 -5.22457e-07 0.0870721 8.08836 20.8822 
769 0.0218 0.0218 0 -7.97932e-06 -7.97932e-06 2.42113e-07 0.0856368 7.86059 19.4496 
809 0.0244 0.0244 0 -7.11316e-06 -7.11316e-06 -3.13093e-07 0.0898377 14.1401 21.8311 
849 0.0392 0.0392 0 -6.31758e-06 -6.31758e-06 -1.27641e-06 0.139625 31.8861 51.486 
889 0.1038 0.1038 0 -1.98479e-06 -1.98479e-06 1.39769e-06 0.401641 137.712 185.621 
929 0.2714 0.2714 0 2.33819e-05 2.33819e-05 -1.45749e-06 1.12482 394.658 521.1 
969 0.5942 0.5942 0 0.000110188 0.000110188 1.07774e-06 2.69525 935.512 1217.69 
10 1.2192 1.2192 0 0.000313764 0.000313764 -1.13796e-06 5.84583 1842.97 2437.68 
50 2.1658 2.1658 0 0.000723737 0.000723737 8.14398e-06 11.1 3194.42 4290.96 
90 3.5058 3.5058 0 0.00138957 0.00138957 -5.72878e-06 18.5081 5191.52 6966.86 
130 5.1074 5.1074 0 0.00228943 0.00228943 -1.43394e-06 27.4838 7303.6 9859.96 
170 6.749 6.749 0 0.00329753 0.00329753 -6.92161e-06 36.9816 9463.32 12930.4 
210 7.8818 7.8818 0 0.00404135 0.00404135 1.29544e-05 43.479 10867.2 14889.6 
250 8.405 8.405 0 0.0043961 0.0043961 -1.32401e-05 46.6438 11453.4 15740.6 
290 7.892 7.892 0 0.00405562 0.00405562 3.99182e-06 43.6486 10995 15095.5 
330 6.758 6.758 0 0.00330933 0.00330933 -8.01082e-06 37.1531 9441.2 12915.4 
370 5.0792 5.0792 0 0.00227185 0.00227185 -3.86155e-06 27.4014 7287.01 9903.87 
410 3.4958 3.4958 0 0.0013936 0.0013936 1.15694e-05 18.5827 5212.44 7005.7 
450 2.152 2.152 0 0.000712457 0.000712457 -3.32736e-06 10.9762 3274.58 4350.49 
490 1.1722 1.1722 0 0.000308563 0.000308563 -1.03041e-06 5.65087 1848.01 2402.1 
530 0.594 0.594 0 0.000104969 0.000104969 2.07492e-06 2.69252 942.906 1218.94 
570 0.2738 0.2738 0 2.43684e-05 2.43684e-05 -6.39733e-07 1.13618 401.998 545.046 
610 0.0984 0.0984 0 -9.86073e-07 -9.86073e-07 -2.06612e-07 0.358975 128.733 182.373 
650 0.0408 0.0408 0 -6.0618e-06 -6.0618e-06 -2.92491e-07 0.150465 34.787 49.4302 
690 0.0314 0.0314 0 -9.03759e-06 -9.03759e-06 -1.42909e-06 0.116971 18.2933 34.4676 
730 0.021 0.021 0 -7.73113e-06 -7.73113e-06 -1.29023e-07 0.0827466 7.82955 16.1089 
770 0.0214 0.0214 0 -8.28709e-06 -8.28709e-06 -4.05255e-07 0.0888713 10.9768 24.5047 
810 0.0258 0.0258 0 -7.76885e-06 -7.76885e-06 -3.00901e-07 0.0966393 13.8453 25.2764 
850 0.048 0.048 0 -7.58361e-06 -7.58361e-06 -2.00047e-07 0.174291 41.5265 67.3653 
890 0.1048 0.1048 0 -2.59193e-06 -2.59193e-06 4.08907e-07 0.396111 117.704 173.652 
930 0.2452 0.2452 0 2.40611e-05 2.40611e-05 -1.32945e-07 1.00541 369.977 485.809 
970 0.6092 0.6092 0 0.000112695 0.000112695 6.38942e-06 2.75809 954.582 1246.48 
11 1.2132 1.2132 0 0.000316328 0.000316328 3.87554e-06 5.89873 1858.37 2410.74 
51 2.1848 2.1848 0 0.000737041 0.000737041 -1.7452e-06 11.1434 3291.99 4383.44 
91 3.5432 3.5432 0 0.00141112 0.00141112 -2.27225e-06 18.6674 5251.34 7007.53 
131 5.1962 5.1962 0 0.00233691 0.00233691 -6.91218e-06 28.0559 7467.28 10160 
171 6.8226 6.8226 0 0.00336194 0.00336194 8.99842e-06 37.6891 9611.93 13164.8 
211 7.9046 7.9046 0 0.00406547 0.00406547 -7.62062e-06 43.7091 10848.1 14904.4 
251 8.342 8.342 0 0.00433773 0.00433773 3.97177e-06 46.0265 11397.7 15663.8 
291 7.8586 7.8586 0 0.00401296 0.00401296 -2.2738e-06 43.2453 10725.4 14760.4 
331 6.5868 6.5868 0 0.00320953 0.00320953 8.39887e-06 36.1218 9282.28 12687.6 
371 5.06 5.06 0 0.00225799 0.00225799 -2.05886e-06 27.2541 7303.87 9846.33 
411 3.4332 3.4332 0 0.00136603 0.00136603 9.39648e-07 18.2454 5119.13 6822.05 
451 2.1284 2.1284 0 0.000698545 0.000698545 -5.85454e-06 10.9021 3197.9 4238.17 
491 1.1748 1.1748 0 0.000306426 0.000306426 6.19344e-08 5.67542 1847.59 2442.49 
531 0.5962 0.5962 0 0.000104321 0.000104321 5.93484e-07 2.69823 918.158 1195.24 
571 0.2404 0.2404 0 1.95439e-05 1.95439e-05 6.05334e-07 1.0027 353.209 476.929 
611 0.0978 0.0978 0 -1.97348e-06 -1.97348e-06 -1.11193e-06 0.355561 120.611 170.11 
651 0.0378 0.0378 0 -6.01257e-06 -6.01257e-06 -1.8625e-07 0.141748 37.2293 57.4431 
691 0.0256 0.0256 0 -7.90473e-06 -7.90473e-06 1.00214e-07 0.0963927 11.8445 22.816 
731 0.025 0.025 0 -8.93583e-06 -8.93583e-06 1.58576e-07 0.097716 15.4106 28.6141 
771 0.0198 0.0198 0 -7.54047e-06 -7.54047e-06 -4.44418e-08 0.0815036 8.26418 21.1297 
811 0.0294 0.0294 0 -8.80535e-06 -8.80535e-06 8.46733e-07 0.110963 17.5208 34.4135 
851 0.0428 0.0428 0 -5.71514e-06 -5.71514e-06 -2.20322e-07 0.152878 43.467 62.4347 
891 0.1104 0.1104 0 -1.3145e-06 -1.3145e-06 3.06168e-07 0.422112 148.897 193.03 
931 0.269 0.269 0 2.41604e-05 2.41604e-05 -3.14418e-06 1.1219 414.083 546.339 
971 0.587 0.587 0 0.000107092 0.000107092 3.35512e-06 2.65191 890.816 1182.81 
12 1.2438 1.2438 0 0.000333985 0.000333985 -3.45147e-06 6.06012 1935.57 2562.68 
52 2.2088 2.2088 0 0.000745135 0.000745135 4.13754e-06 11.2791 3390.8 4497.64 
92 3.5464 3.5464 0 0.00141849 0.00141849 4.5037e-06 18.7096 5250.1 7023.6 
132 5.2198 5.2198 0 0.0023502 0.0023502 -5.04509e-06 28.1003 7495.38 10158.1 
172 6.8344 6.8344 0 0.00335328 0.00335328 -1.31326e-05 37.5183 9550.72 13071.9 
212 7.915 7.915 0 0.0040779 0.0040779 -2.07301e-06 43.7625 10868.6 14965.4 
252 8.324 8.324 0 0.00435516 0.00435516 2.06056e-05 46.2116 11501.8 15776.3 
292 7.8828 7.8828 0 0.00405238 0.00405238 3.79586e-07 43.6488 10813.1 14861.6 
332 6.5958 6.5958 0 0.00323006 0.00323006 -3.50453e-06 36.3291 9276.11 12714.5 
372 4.971 4.971 0 0.002211 0.002211 -5.40836e-06 26.8101 7208.57 9720.87 
412 3.3732 3.3732 0 0.0013252 0.0013252 1.25855e-05 17.7313 5087.88 6795 
452 2.0844 2.0844 0 0.000678951 0.000678951 2.09282e-07 10.4896 3139.67 4168.96 
492 1.141 1.141 0 0.000292043 0.000292043 -8.30621e-07 5.49246 1737.71 2331.5 
532 0.543 0.543 0 9.2321e-05 9.2321e-05 8.48443e-07 2.41375 785.772 1056.76 
572 0.252 0.252 0 2.35926e-05 2.35926e-05 1.86563e-06 1.02428 363.878 486.424 
612 0.0934 0.0934 0 -3.37488e-06 -3.37488e-06 6.92608e-07 0.357196 113.884 150.922 
652 0.0408 0.0408 0 -6.3791e-06 -6.3791e-06 7.50344e-07 0.148351 40.9437 55.0709 
692 0.0222 0.0222 0 -6.9145e-06 -6.9145e-06 -6.89304e-08 0.0869131 10.8034 23.7792 
732 0.0214 0.0214 0 -8.04759e-06 -8.04759e-06 6.20517e-07 0.0868126 12.5261 17.5103 
772 0.0236 0.0236 0 -8.50411e-06 -8.50411e-06 1.19581e-06 0.0928463 11.0625 23.7202 
812 0.026 0.026 0 -7.48589e-06 -7.48589e-06 8.70367e-08 0.0977242 20.2965 36.0405 
852 0.0468 0.0468 0 -6.29402e-06 -6.29402e-06 2.44034e-07 0.176881 52.2309 73.2054 
892 0.1066 0.1066 0 -1.83285e-06 -1.83285e-06 -3.75227e-07 0.418487 138.611 199.397 
932 0.287 0.287 0 2.88092e-05 2.88092e-05 -2.068e-06 1.23755 435.193 574.004 
972 0.6268 0.6268 0 0.00011408 0.00011408 4.53244e-06 2.80735 985.978 1292.98 
13 1.2908 1.2908 0 0.000350677 0.000350677 -7.22479e-06 6.29951 2019.99 2644.89 
53 2.1922 2.1922 0 0.000738933 0.000738933 2.48028e-07 11.1416 3311.21 4401.72 
93 3.634 3.634 0 0.00146089 0.00146089 3.92574e-06 19.222 5397.99 7244.54 
133 5.2508 5.2508 0 0.00239427 0.00239427 2.98806e-06 28.6287 7570.46 10198.8 
173 6.8404 6.8404 0 0.00338199 0.00338199 1.17032e-05 37.761 9666.36 13200.2 
213 8.0418 8.0418 0 0.00412395 0.00412395 3.32033e-06 44.3238 11023.1 15177.4 
253 8.361 8.361 0 0.00438399 0.00438399 5.56533e-06 46.516 11620.2 16001.3 
293 7.8202 7.8202 0 0.00402533 0.00402533 1.24194e-05 43.3967 10912.7 14857.1 
333 6.58 6.58 0 0.00318821 0.00318821 -2.58034e-05 36.0096 9264.79 12567.1 
373 4.9516 4.9516 0 0.00220771 0.00220771 -5.0121e-06 26.6557 7171.12 9663.68 
413 3.3712 3.3712 0 0.00132964 0.00132964 -7.64453e-06 17.8027 5030.76 6703.53 
453 2.064 2.064 0 0.00067369 0.00067369 4.36352e-07 10.5 3176.39 4250.64 
493 1.1452 1.1452 0 0.00029331 0.00029331 6.06178e-07 5.47126 1780.85 2359.46 
533 0.5778 0.5778 0 9.82756e-05 9.82756e-05 7.18872e-07 2.56857 858.619 1128.15 
573 0.2338 0.2338 0 1.69966e-05 1.69966e-05 -1.65078e-07 0.964454 317.309 432.902 
613 0.0964 0.0964 0 -2.76986e-06 -2.76986e-06 -7.16435e-07 0.361307 109.608 147.12 
653 0.0422 0.0422 0 -7.04029e-06 -7.04029e-06 2.3226e-08 0.148143 30.0742 47.9764 
693 0.025 0.025 0 -6.93735e-06 -6.93735e-06 -9.86718e-07 0.0889752 13.063 24.5484 
733 0.0204 0.0204 0 -7.43501e-06 -7.43501e-06 5.53252e-07 0.0802602 8.55266 15.7629 
773 0.025 0.025 0 -9.64553e-06 -9.64553e-06 1.37566e-07 0.10363 12.1147 24.0467 
813 0.0238 0.0238 0 -6.79382e-06 -6.79382e-06 -7.47723e-07 0.0926196 13.674 21.8519 
853 0.0468 0.0468 0 -6.55782e-06 -6.55782e-06 -3.93816e-08 0.173721 50.1145 74.5279 
893 0.1068 0.1068 0 9.83526e-07 9.83526e-07 -1.86125e-06 0.407474 151.836 209.369 
933 0.298 0.298 0 2.75295e-05 2.75295e-05 7.92575e-07 1.2452 434.395 556.982 
973 0.6134 0.6134 0 0.000114481 0.000114481 2.95109e-06 2.73298 932.016 1223.14 
14 1.281 1.281 0 0.00034986 0.00034986 -1.85581e-06 6.27296 2092.45 2731.96 
54 2.2856 2.2856 0 0.000780205 0.000780205 -8.24386e-06 11.6687 3521.4 4637.1 
94 3.6862 3.6862 0 0.00149675 0.00149675 9.68309e-06 19.6054 5536.07 7396.83 
134 5.3002 5.3002 0 0.00241499 0.00241499 -3.65226e-06 28.8415 7710.24 10367.4 
174 6.8462 6.8462 0 0.00335871 0.00335871 3.87679e-07 37.5012 9457.47 13027.9 
214 7.981 7.981 0 0.00413488 0.00413488 -1.73076e-05 44.3664 11044.1 15206.8 
254 8.3422 8.3422 0 0.00435275 0.00435275 1.34171e-05 46.1885 11438.1 15749.9 
294 7.8024 7.8024 0 0.00398664 0.00398664 -1.36183e-06 43.0276 10766.9 14788.9 
334 6.5398 6.5398 0 0.00318254 0.00318254 -7.72954e-06 35.961 9230.02 12602.4 
374 4.8904 4.8904 0 0.00217644 0.00217644 -3.64738e-07 26.5327 7080.25 9504.86 
414 3.2754 3.2754 0 0.00127359 0.00127359 -2.43227e-06 17.2429 4797.32 6437.57 
454 2.0518 2.0518 0 0.000665685 0.000665685 -1.73711e-05 10.3586 3090.78 4056.49 
494 1.088 1.088 0 0.000266806 0.000266806 -2.48055e-06 5.20369 1626.69 2170.36 
534 0.5542 0.5542 0 9.86127e-05 9.86127e-05 3.30745e-06 2.50389 881.371 1149.07 
574 0.2436 0.2436 0 2.11356e-05 2.11356e-05 8.33149e-07 0.984724 359.421 459.863 
614 0.0948 0.0948 0 -3.99012e-06 -3.99012e-06 7.88483e-07 0.355907 111.402 151.267 
654 0.0384 0.0384 0 -6.65524e-06 -6.65524e-06 -6.94838e-07 0.143112 31.8408 47.2607 
694 0.0236 0.0236 0 -7.32473e-06 -7.32473e-06 -2.19944e-07 0.0903589 10.8434 25.2355 
734 0.022 0.022 0 -8.10979e-06 -8.10979e-06 4.83966e-07 0.0869127 8.9649 17.6135 
774 0.0248 0.0248 0 -9.21587e-06 -9.21587e-06 1.95417e-07 0.0986832 8.44596 17.8827 
814 0.0282 0.0282 0 -8.43356e-06 -8.43356e-06 7.89115e-08 0.105093 18.4303 30.26 
854 0.0488 0.0488 0 -5.92669e-06 -5.92669e-06 3.56202e-07 0.184983 52.2175 80.305 
894 0.1116 0.1116 0 1.91474e-06 1.91474e-06 6.4108e-07 0.415411 150.79 205.163 
934 0.2754 0.2754 0 2.4103e-05 2.4103e-05 5.90943e-07 1.18287 397.46 512.655 
974 0.648 0.648 0 0.000122213 0.000122213 7.25921e-07 2.95357 1029.04 1344.06 
15 1.2848 1.2848 0 0.00035499 0.00035499 6.33669e-07 6.27558 2094.01 2740.53 
55 2.3172 2.3172 0 0.000788075 0.000788075 4.81793e-06 11.8083 3466.18 4648.75 
95 3.6808 3.6808 0 0.00148203 0.00148203 1.00365e-06 19.49 5463.05 7318.42 
135 5.3254 5.3254 0 0.00241765 0.00241765 3.64861e-06 28.8393 7614.16 10347.7 
175 6.9056 6.9056 0 0.00340821 0.00340821 -6.74723e-07 37.8986 9689.44 13111.4 
215 8.0004 8.0004 0 0.00413513 0.00413513 -1.16536e-05 44.3693 11009.3 15084.5 
255 8.3406 8.3406 0 0.00435368 0.00435368 -1.62186e-05 46.2113 11390.4 15707.8 
295 7.7446 7.7446 0 0.00395456 0.00395456 1.46352e-05 42.7166 10606.4 14477.1 
335 6.4916 6.4916 0 0.00314097 0.00314097 1.08912e-05 35.5069 9167.75 12473.5 
375 4.8664 4.8664 0 0.00214914 0.00214914 1.38259e-05 26.2496 6958.32 9425.35 
415 3.2656 3.2656 0 0.00126681 0.00126681 -6.16617e-06 17.0816 4946.39 6572.04 
455 1.992 1.992 0 0.000647512 0.000647512 -1.06717e-06 10.1153 3124.63 4108.09 
495 1.1024 1.1024 0 0.000276248 0.000276248 4.22881e-06 5.29198 1753.02 2246.65 
535 0.5272 0.5272 0 8.7446e-05 8.7446e-05 2.22095e-06 2.34207 776.54 1020.68 
575 0.2286 0.2286 0 1.57047e-05 1.57047e-05 7.34886e-07 0.933544 313.837 415.012 
615 0.0856 0.0856 0 -3.32651e-06 -3.32651e-06 2.9233e-07 0.324486 113.983 151.361 
655 0.0422 0.0422 0 -7.62355e-06 -7.62355e-06 -1.93869e-06 0.152579 37.0378 55.0824 
695 0.0244 0.0244 0 -7.29384e-06 -7.29384e-06 1.17142e-06 0.0958701 24.5323 40.0766 
735 0.022 0.022 0 -8.05437e-06 -8.05437e-06 1.65597e-07 0.0859123 8.07481 16.7049 
775 0.0194 0.0194 0 -7.03905e-06 -7.03905e-06 -7.91531e-07 0.076664 6.99038 19.6772 