ITEM: TIMESTEP
25000
ITEM: NUMBER OF SURFS
1000
ITEM: BOX BOUNDS oo rr pp
0 0.3
0 0.3
-0.5 0.5
ITEM: SURFS id f_4[1] f_4[2] f_4[3] f_4[4] f_4[5] f_4[6] f_4[7] f_4[8] f_4[9] 
1 0.832 0.832 0 6.31728e-05 6.31728e-05 6.65563e-07 0.789354 486.286 542.643 
41 1.6918 1.6918 0 0.000165756 0.000165756 1.52918e-07 1.85306 1107.33 1227.92 
81 2.878 2.878 0 0.00032556 0.00032556 -1.27679e-06 3.57533 1903.46 2118.95 
121 4.1408 4.1408 0 0.000518636 0.000518636 2.56934e-06 5.60798 2740.35 3050.52 
161 5.3636 5.3636 0 0.000727174 0.000727174 1.16132e-06 7.80011 3534.6 3947.85 
201 6.2258 6.2258 0 0.00088637 0.00088637 2.06034e-06 9.45196 4058.32 4552.69 
241 6.6688 6.6688 0 0.000965218 0.000965218 3.32348e-06 10.2439 4306.45 4851.46 
281 6.505 6.505 0 0.000937549 0.000937549 -1.03352e-06 9.96598 4222.92 4743.07 
321 5.767 5.767 0 0.000805053 0.000805053 5.97763e-08 8.59561 3811.43 4252.64 
361 4.667 4.667 0 0.000609513 0.000609513 1.46804e-07 6.58481 3059.95 3420.42 
401 3.4352 3.4352 0 0.000408073 0.000408073 -3.11992e-07 4.43918 2286.59 2536.52 
441 2.1698 2.1698 0 0.000228436 0.000228436 -1.04063e-06 2.51171 1431.5 1591.47 
481 1.138 1.138 0 9.86709e-05 9.86709e-05 -1.26565e-06 1.14694 705.233 789.866 
521 0.4794 0.4794 0 2.99067e-05 2.99067e-05 -3.74699e-07 0.431754 254.24 292.919 
561 0.187 0.187 0 6.97832e-06 6.97832e-06 8.35724e-07 0.150351 77.1833 94.9277 
601 0.0544 0.0544 0 7.59719e-07 7.59719e-07 1.83311e-07 0.0402324 19.8034 23.4117 
641 0.018 0.018 0 -2.36379e-07 -2.36379e-07 2.54538e-08 0.0130433 4.64188 5.79115 
681 0.0076 0.0076 0 -3.34502e-07 -3.34502e-07 6.87406e-08 0.00540283 0.892909 1.83599 
721 0.0028 0.0028 0 -1.69161e-07 -1.69161e-07 2.29234e-09 0.00188312 -0.152078 -0.257581 
761 0.002 0.002 0 -1.38531e-07 -1.38531e-07 2.38559e-08 0.0014835 -0.0188141 0.246321 
801 0.0044 0.0044 0 -2.66697e-07 -2.66697e-07 -3.83947e-08 0.00311095 0.262323 0.667114 
841 0.0118 0.0118 0 -2.43947e-07 -2.43947e-07 1.52756e-08 0.00806275 3.14423 3.86131 
881 0.0372 0.0372 0 1.21227e-07 1.21227e-07 2.18091e-08 0.0261553 12.1018 15.6702 
921 0.1202 0.1202 0 3.16046e-06 3.16046e-06 -4.34815e-07 0.090466 44.5099 53.9069 
961 0.332 0.332 0 1.66832e-05 1.66832e-05 3.52942e-07 0.28517 159.393 183.828 
2 0.8394 0.8394 0 6.61373e-05 6.61373e-05 -1.89362e-07 0.811512 497.998 560.725 
42 1.7036 1.7036 0 0.000167812 0.000167812 2.07915e-06 1.88454 1114.11 1237.61 
82 2.9146 2.9146 0 0.000329712 0.000329712 -4.07109e-07 3.619 1929.48 2150.44 
122 4.1734 4.1734 0 0.000527319 0.000527319 -2.93739e-07 5.69103 2799.26 3122.51 
162 5.34 5.34 0 0.000723248 0.000723248 -1.86727e-06 7.76664 3482.6 3911.22 
202 6.3082 6.3082 0 0.000900543 0.000900543 -1.26013e-06 9.57967 4098.15 4596.91 
242 6.6282 6.6282 0 0.000962489 0.000962489 -1.1378e-07 10.2126 4316.95 4839.5 
282 6.4974 6.4974 0 0.000933518 0.000933518 -1.73212e-06 9.91987 4228.54 4740.16 
322 5.7674 5.7674 0 0.000799175 0.000799175 3.89818e-06 8.54627 3750.47 4217.85 
362 4.6456 4.6456 0 0.000604615 0.000604615 2.06064e-06 6.53756 3050.1 3405.81 
402 3.3968 3.3968 0 0.000403449 0.000403449 -1.45189e-06 4.37935 2259.59 2505.61 
442 2.1336 2.1336 0 0.000221194 0.000221194 2.36654e-06 2.45244 1383.7 1537.2 
482 1.1404 1.1404 0 9.82987e-05 9.82987e-05 1.06389e-06 1.15802 702.605 789.07 
522 0.4856 0.4856 0 3.01333e-05 3.01333e-05 -3.14187e-07 0.431043 252.096 290.037 
562 0.1718 0.1718 0 6.71454e-06 6.71454e-06 -2.27426e-07 0.138006 72.8338 83.5046 
602 0.0586 0.0586 0 4.3306e-07 4.3306e-07 -1.17799e-07 0.0422014 18.6041 22.4891 
642 0.0142 0.0142 0 -3.10419e-07 -3.10419e-07 -1.39886e-07 0.00944697 2.5577 3.99984 
682 0.005 0.005 0 -1.68798e-07 -1.68798e-07 7.60349e-10 0.00311296 0.67043 1.40697 
722 0.0018 0.0018 0 -9.44407e-08 -9.44407e-08 2.29505e-08 0.00101243 0.211597 0.361109 
762 0.0032 0.0032 0 -2.05874e-07 -2.05874e-07 -4.28239e-08 0.0022553 0.0951938 0.776771 
802 0.0032 0.0032 0 -1.33568e-07 -1.33568e-07 4.32611e-08 0.00219928 0.577024 0.701445 
842 0.013 0.013 0 -4.34218e-07 -4.34218e-07 -5.87094e-09 0.00903258 1.58512 2.52712 
882 0.039 0.039 0 -1.29668e-07 -1.29668e-07 -2.60352e-07 0.0265628 10.5499 14.2828 
922 0.1216 0.1216 0 2.96641e-06 2.96641e-06 -3.52442e-07 0.0922301 43.5204 52.7542 
962 0.3416 0.3416 0 1.82223e-05 1.82223e-05 1.89943e-07 0.292598 163.184 192.074 
3 0.8674 0.8674 0 6.57564e-05 6.57564e-05 1.18103e-07 0.852951 491.212 556.847 
43 1.7638 1.7638 0 0.000173441 0.000173441 3.5236e-07 1.93701 1142.52 1272.01 
83 2.8924 2.8924 0 0.000328604 0.000328604 1.1397e-06 3.61779 1919.4 2133.87 
123 4.186 4.186 0 0.000531282 0.000531282 4.51018e-07 5.73859 2780.64 3091.12 
163 5.3336 5.3336 0 0.000726638 0.000726638 -1.01468e-06 7.76307 3515.18 3933.71 
203 6.2706 6.2706 0 0.000894952 0.000894952 -2.15867e-07 9.5301 4065.68 4547.12 
243 6.604 6.604 0 0.000956833 0.000956833 -4.90917e-06 10.1528 4297.93 4826.87 
283 6.4586 6.4586 0 0.000928531 0.000928531 -7.26298e-07 9.86957 4150.03 4645.9 
323 5.7128 5.7128 0 0.000797199 0.000797199 3.1773e-06 8.52865 3741.47 4181.2 
363 4.6244 4.6244 0 0.00060202 0.00060202 8.89126e-07 6.50519 3078.26 3416.52 
403 3.3664 3.3664 0 0.000397443 0.000397443 -4.48167e-07 4.31793 2230.53 2475.73 
443 2.0908 2.0908 0 0.000218048 0.000218048 7.87271e-07 2.42034 1372.98 1528.6 
483 1.1272 1.1272 0 9.50888e-05 9.50888e-05 -5.36857e-07 1.13641 676.345 756.87 
523 0.4966 0.4966 0 2.99984e-05 2.99984e-05 5.2476e-07 0.45092 260.929 297.123 
563 0.174 0.174 0 6.28954e-06 6.28954e-06 -1.99466e-07 0.142808 75.4458 90.9674 
603 0.0568 0.0568 0 2.47974e-07 2.47974e-07 -1.39431e-07 0.0433215 16.9134 22.0282 
643 0.0172 0.0172 0 -3.24529e-07 -3.24529e-07 -3.13361e-08 0.0123404 4.6121 5.03835 
683 0.0062 0.0062 0 -2.75067e-07 -2.75067e-07 4.36409e-08 0.00392662 0.906688 1.27052 
723 0.0028 0.0028 0 -1.77697e-07 -1.77697e-07 -1.40768e-08 0.00193172 -0.139263 -0.0909046 
763 0.0032 0.0032 0 -1.77474e-07 -1.77474e-07 -1.23827e-08 0.0018956 0.154916 0.86862 
803 0.0036 0.0036 0 -1.11433e-07 -1.11433e-07 4.1382e-08 0.00200117 0.614022 0.759693 
843 0.0116 0.0116 0 -3.29567e-07 -3.29567e-07 -1.64609e-08 0.00776584 2.38451 3.32305 
883 0.0348 0.0348 0 5.86022e-08 5.86022e-08 -1.8104e-07 0.0240928 9.96853 13.2178 
923 0.1232 0.1232 0 3.16626e-06 3.16626e-06 1.63088e-07 0.09375 46.7472 55.198 
963 0.342 0.342 0 1.88324e-05 1.88324e-05 4.1498e-07 0.297354 168.845 196.389 
4 0.8946 0.8946 0 6.78484e-05 6.78484e-05 7.6128e-07 0.865276 505.58 567.912 
44 1.7708 1.7708 0 0.000173197 0.000173197 5.45906e-07 1.961 1123.58 1255.46 
84 3.0034 3.0034 0 0.00034092 0.00034092 -1.94679e-07 3.7403 1973.59 2195.92 
124 4.2472 4.2472 0 0.000539299 0.000539299 -4.59368e-07 5.83165 2806.33 3118.28 
164 5.3984 5.3984 0 0.000735712 0.000735712 1.03859e-06 7.87984 3586.48 4013.81 
204 6.334 6.334 0 0.00090222 0.00090222 1.83482e-06 9.60433 4054.24 4560.71 
244 6.5954 6.5954 0 0.000957185 0.000957185 -1.89859e-06 10.1566 4259.05 4787.45 
284 6.3944 6.3944 0 0.000914893 0.000914893 5.78453e-07 9.72733 4148.35 4650.99 
324 5.7584 5.7584 0 0.000799582 0.000799582 1.33234e-06 8.54901 3815.48 4262.15 
364 4.6488 4.6488 0 0.000605366 0.000605366 1.34677e-07 6.52364 3082.38 3443.6 
404 3.3396 3.3396 0 0.000393153 0.000393153 -1.20462e-06 4.31337 2209.76 2451.89 
444 2.068 2.068 0 0.000212214 0.000212214 1.14257e-06 2.35817 1356.07 1507.54 
484 1.0858 1.0858 0 9.11936e-05 9.11936e-05 -3.80807e-07 1.09845 667.037 748.243 
524 0.4678 0.4678 0 2.73076e-05 2.73076e-05 4.65137e-07 0.423949 234.77 277.052 
564 0.1672 0.1672 0 6.32673e-06 6.32673e-06 3.53407e-07 0.130016 76.3115 89.0232 
604 0.0604 0.0604 0 4.85647e-07 4.85647e-07 -5.13911e-08 0.0436369 18.1145 23.254 
644 0.0158 0.0158 0 -1.32118e-07 -1.32118e-07 -3.54338e-08 0.00975436 4.52363 5.20041 
684 0.0052 0.0052 0 -1.72048e-07 -1.72048e-07 4.69353e-08 0.00307579 0.593647 1.05013 
724 0.0026 0.0026 0 -1.25448e-07 -1.25448e-07 -1.17876e-08 0.00143567 0.132514 0.148541 
764 0.002 0.002 0 -1.21815e-07 -1.21815e-07 -4.80146e-08 0.00127719 -0.0684362 0.0593347 
804 0.005 0.005 0 -2.25944e-07 -2.25944e-07 7.43088e-08 0.00340171 0.590975 1.33653 
844 0.0096 0.0096 0 -2.55699e-07 -2.55699e-07 1.2545e-07 0.00670977 2.55019 3.53784 
884 0.0372 0.0372 0 -2.92925e-09 -2.92925e-09 -3.23921e-08 0.0269897 11.1541 14.2612 
924 0.1236 0.1236 0 3.98139e-06 3.98139e-06 1.03338e-07 0.0942222 50.7121 60.6208 
964 0.3618 0.3618 0 1.9612e-05 1.9612e-05 1.3362e-07 0.315906 180.053 208.452 
5 0.9032 0.9032 0 7.18707e-05 7.18707e-05 4.68679e-07 0.888519 544.119 612.818 
45 1.7738 1.7738 0 0.000174384 0.000174384 -7.88871e-07 1.94684 1136.56 1271.41 
85 2.9988 2.9988 0 0.000345421 0.000345421 -9.29504e-07 3.76473 1994.25 2210.54 
125 4.2874 4.2874 0 0.000545088 0.000545088 2.08562e-06 5.89106 2864.26 3186.42 
165 5.4364 5.4364 0 0.000742623 0.000742623 -1.56423e-06 7.96012 3587.42 4015.11 
205 6.272 6.272 0 0.000895373 0.000895373 -3.07977e-07 9.53069 4086.41 4573.26 
245 6.6492 6.6492 0 0.00096778 0.00096778 6.35061e-08 10.2685 4315.22 4843.18 
285 6.4328 6.4328 0 0.000924972 0.000924972 -2.52214e-06 9.82203 4233.49 4741.1 
325 5.66 5.66 0 0.000783278 0.000783278 2.96157e-06 8.38204 3697.86 4132.94 
365 4.563 4.563 0 0.000594372 0.000594372 -1.88991e-06 6.41528 3052.61 3396.34 
405 3.2646 3.2646 0 0.000385872 0.000385872 1.05361e-06 4.18415 2198.54 2446.12 
445 2.0792 2.0792 0 0.000213697 0.000213697 8.9904e-07 2.36599 1355.59 1507.37 
485 1.0814 1.0814 0 9.12462e-05 9.12462e-05 2.87787e-06 1.08161 660.555 743.827 
525 0.4494 0.4494 0 2.71281e-05 2.71281e-05 -4.30832e-07 0.402988 229.061 264.488 
565 0.1622 0.1622 0 5.51562e-06 5.51562e-06 4.66156e-07 0.130451 69.4363 82.4853 
605 0.0526 0.0526 0 3.85246e-07 3.85246e-07 -3.27852e-07 0.0395845 18.1101 22.611 
645 0.0198 0.0198 0 -4.42848e-07 -4.42848e-07 1.94142e-10 0.0132465 3.47475 5.35961 
685 0.0072 0.0072 0 -3.33939e-07 -3.33939e-07 6.28531e-08 0.0052104 0.923266 1.11705 
725 0.0032 0.0032 0 -2.73146e-07 -2.73146e-07 9.08681e-09 0.00288208 0.393244 0.573413 
765 0.003 0.003 0 -1.22834e-07 -1.22834e-07 5.68709e-08 0.00136705 0.201192 0.352646 
805 0.0036 0.0036 0 -1.89571e-07 -1.89571e-07 -5.5998e-08 0.00258626 0.282727 0.52563 
845 0.0148 0.0148 0 -3.86143e-07 -3.86143e-07 1.32327e-07 0.0104017 3.10168 4.96304 
885 0.0386 0.0386 0 1.90421e-07 1.90421e-07 9.80497e-08 0.0272891 13.0297 15.9967 
925 0.1306 0.1306 0 3.78546e-06 3.78546e-06 -2.0181e-07 0.0993544 52.0313 62.3762 
965 0.3712 0.3712 0 2.00879e-05 2.00879e-05 -5.08675e-07 0.319724 181.732 210.555 
6 0.9328 0.9328 0 7.31745e-05 7.31745e-05 4.44037e-07 0.916559 552.632 623.819 
46 1.8816 1.8816 0 0.000187491 0.000187491 9.90916e-07 2.09982 1236.38 1374.77 
86 3.0608 3.0608 0 0.000353855 0.000353855 -7.91655e-07 3.84709 2036.87 2262.57 
126 4.3466 4.3466 0 0.00055353 0.00055353 -5.46158e-07 5.97927 2873.16 3208.51 
166 5.4196 5.4196 0 0.000741294 0.000741294 2.18558e-06 7.94967 3554.57 3978.02 
206 6.2828 6.2828 0 0.000897473 0.000897473 -1.57353e-06 9.55633 4107.13 4595.19 
246 6.6872 6.6872 0 0.0009744 0.0009744 -4.21477e-06 10.3387 4321.5 4853.04 
286 6.4394 6.4394 0 0.000925081 0.000925081 -1.60519e-06 9.83637 4174.99 4703.84 
326 5.6246 5.6246 0 0.00077572 0.00077572 -4.59443e-06 8.30181 3700.41 4136.37 
366 4.477 4.477 0 0.000576375 0.000576375 1.54449e-06 6.22417 2957.23 3296.83 
406 3.227 3.227 0 0.000379675 0.000379675 3.24981e-06 4.1419 2168.46 2407.6 
446 2.051 2.051 0 0.000205952 0.000205952 3.42205e-08 2.3211 1302.77 1454.73 
486 1.0552 1.0552 0 8.71734e-05 8.71734e-05 -3.62174e-07 1.04198 631.852 712.344 
526 0.4554 0.4554 0 2.6701e-05 2.6701e-05 -7.51435e-07 0.411247 227.707 261.609 
566 0.1684 0.1684 0 6.113e-06 6.113e-06 2.6003e-07 0.135629 71.1719 82.9431 
606 0.0484 0.0484 0 1.86045e-07 1.86045e-07 4.15769e-07 0.0362964 15.201 18.9529 
646 0.0144 0.0144 0 -2.21879e-07 -2.21879e-07 -3.40397e-08 0.00948379 3.69069 4.31211 
686 0.0042 0.0042 0 -1.76483e-07 -1.76483e-07 8.47466e-08 0.00260292 0.27672 0.818015 
726 0.0034 0.0034 0 -2.38096e-07 -2.38096e-07 1.35627e-08 0.00275125 0.101871 0.64598 
766 0.0024 0.0024 0 -1.34389e-07 -1.34389e-07 1.63577e-08 0.00146226 0.0300202 0.266717 
806 0.0046 0.0046 0 -1.94338e-07 -1.94338e-07 5.4085e-08 0.00263971 0.628998 0.920952 
846 0.0138 0.0138 0 -3.16479e-07 -3.16479e-07 1.53419e-07 0.00903363 2.69711 4.80862 
886 0.047 0.047 0 7.18469e-08 7.18469e-08 1.46379e-08 0.0344182 13.7616 18.2151 
926 0.141 0.141 0 4.09898e-06 4.09898e-06 2.82234e-07 0.10809 54.8156 67.3469 
966 0.3728 0.3728 0 2.07945e-05 2.07945e-05 -3.31766e-07 0.324161 187.479 217.247 
7 0.9426 0.9426 0 7.54915e-05 7.54915e-05 1.34405e-06 0.914319 553.99 625.254 
47 1.9064 1.9064 0 0.000190932 0.000190932 -6.28797e-07 2.12296 1243.91 1387.8 
87 3.0588 3.0588 0 0.00035355 0.00035355 -2.26866e-07 3.84754 2050.35 2280.43 
127 4.32 4.32 0 0.000551763 0.000551763 -3.96698e-07 5.97585 2865.58 3188.87 
167 5.496 5.496 0 0.000750594 0.000750594 -1.61253e-06 8.05651 3549.73 3969.89 
207 6.4248 6.4248 0 0.000911142 0.000911142 -8.20554e-07 9.69434 4135.97 4647.35 
247 6.682 6.682 0 0.000973827 0.000973827 2.51021e-06 10.3325 4316.22 4840.68 
287 6.3966 6.3966 0 0.000918876 0.000918876 -1.88091e-06 9.77648 4130.93 4642.66 
327 5.5672 5.5672 0 0.000763818 0.000763818 -1.11613e-06 8.17966 3634.19 4063.28 
367 4.5004 4.5004 0 0.000580074 0.000580074 1.32173e-07 6.25717 2996.51 3332.41 
407 3.2258 3.2258 0 0.000375814 0.000375814 2.06476e-06 4.11364 2117.73 2362.85 
447 1.9844 1.9844 0 0.000202268 0.000202268 7.33912e-07 2.2379 1287.13 1431.96 
487 1.0528 1.0528 0 8.62511e-05 8.62511e-05 6.40029e-07 1.04464 626.85 706.758 
527 0.4418 0.4418 0 2.64565e-05 2.64565e-05 6.88433e-07 0.392629 229.665 266.459 
567 0.1484 0.1484 0 4.54972e-06 4.54972e-06 -2.09303e-07 0.116807 60.1486 71.7378 
607 0.0428 0.0428 0 2.84919e-07 2.84919e-07 2.022e-07 0.0314378 14.0806 17.9562 
647 0.0146 0.0146 0 -2.54113e-07 -2.54113e-07 -1.29622e-07 0.00973631 3.83277 4.92815 
687 0.004 0.004 0 -1.98301e-07 -1.98301e-07 1.18256e-08 0.00293007 0.485445 0.738685 
727 0.0026 0.0026 0 -1.37326e-07 -1.37326e-07 1.38374e-08 0.00151954 0.144492 0.236884 
767 0.0018 0.0018 0 -1.01919e-07 -1.01919e-07 2.11966e-08 0.00112572 -0.0207724 0.401441 
807 0.0042 0.0042 0 -1.4739e-07 -1.4739e-07 -4.45662e-08 0.00253744 0.689841 1.12472 
847 0.0116 0.0116 0 -1.19556e-07 -1.19556e-07 5.13582e-08 0.0073385 3.92807 5.17555 
887 0.0448 0.0448 0 1.10077e-07 1.10077e-07 1.47503e-07 0.0324092 13.3323 16.5681 
927 0.141 0.141 0 3.79429e-06 3.79429e-06 1.79765e-07 0.111337 58.1095 70.8673 
967 0.3988 0.3988 0 2.28696e-05 2.28696e-05 6.56867e-07 0.346332 207.185 238.76 
8 0.9568 0.9568 0 7.70387e-05 7.70387e-05 -3.71759e-08 0.93601 571.19 640.438 
48 1.9082 1.9082 0 0.000192069 0.000192069 -3.55364e-08 2.15755 1253.94 1389.99 
88 3.08 3.08 0 0.000355007 0.000355007 1.01959e-06 3.89732 2048.74 2283.19 
128 4.3636 4.3636 0 0.000558243 0.000558243 -1.54023e-06 6.03464 2856.28 3187.24 
168 5.562 5.562 0 0.000761957 0.000761957 -2.94431e-06 8.17473 3654.42 4072.18 
208 6.3644 6.3644 0 0.000912265 0.000912265 9.50106e-07 9.69554 4132.29 4640.36 
248 6.7068 6.7068 0 0.000976017 0.000976017 4.15372e-07 10.356 4365.72 4888.98 
288 6.4376 6.4376 0 0.000919807 0.000919807 -1.6358e-07 9.78221 4172.82 4700 
328 5.6838 5.6838 0 0.000785054 0.000785054 2.67222e-06 8.41905 3723.76 4169.75 
368 4.4922 4.4922 0 0.000576118 0.000576118 -1.22221e-06 6.24927 2946.79 3297.04 
408 3.2124 3.2124 0 0.000373435 0.000373435 -8.82928e-07 4.07925 2130.95 2362.94 
448 2.0108 2.0108 0 0.00020478 0.00020478 4.17801e-07 2.27681 1327.42 1477.63 
488 1.0322 1.0322 0 8.31187e-05 8.31187e-05 -1.93078e-07 1.025 608.276 691.514 
528 0.4234 0.4234 0 2.50397e-05 2.50397e-05 3.28066e-08 0.369416 217.554 249.769 
568 0.1596 0.1596 0 4.96605e-06 4.96605e-06 -3.71558e-07 0.127419 60.4965 71.4385 
608 0.0526 0.0526 0 3.36104e-07 3.36104e-07 -5.81375e-08 0.0364153 15.131 18.8398 
648 0.0142 0.0142 0 -3.08508e-07 -3.08508e-07 1.00133e-08 0.0103795 3.10533 3.76712 
688 0.0036 0.0036 0 -1.5554e-07 -1.5554e-07 3.15545e-08 0.00241055 0.121945 0.344062 
728 0.0012 0.0012 0 -6.49654e-08 -6.49654e-08 -3.56877e-09 0.000760055 0.145118 0.432684 
768 0.0034 0.0034 0 -1.93501e-07 -1.93501e-07 -1.54092e-08 0.00208039 0.17549 0.607755 
808 0.005 0.005 0 -2.12531e-07 -2.12531e-07 2.28896e-08 0.00328593 0.427294 0.767248 
848 0.0126 0.0126 0 -1.72614e-07 -1.72614e-07 -1.31833e-07 0.00851608 4.13214 4.85368 
888 0.0422 0.0422 0 3.7937e-07 3.7937e-07 -5.72211e-08 0.0287142 14.3204 18.1083 
928 0.1422 0.1422 0 4.301e-06 4.301e-06 -4.04625e-07 0.109947 55.1646 64.7418 
968 0.4084 0.4084 0 2.27019e-05 2.27019e-05 -7.48001e-08 0.360572 200.466 231.31 
9 0.9684 0.9684 0 7.82608e-05 7.82608e-05 1.84372e-06 0.959956 573.407 648.279 
49 1.9356 1.9356 0 0.000194723 0.000194723 6.13256e-07 2.17087 1255.47 1395.34 
89 3.0762 3.0762 0 0.000353707 0.000353707 -1.01133e-06 3.86429 2013.87 2245.58 
129 4.4332 4.4332 0 0.000567972 0.000567972 1.5517e-06 6.13154 2907.45 3251.19 
169 5.5878 5.5878 0 0.000765715 0.000765715 4.32637e-06 8.20937 3661.38 4097.61 
209 6.3742 6.3742 0 0.000916302 0.000916302 1.60942e-06 9.74207 4148.14 4648.77 
249 6.7058 6.7058 0 0.000972592 0.000972592 2.17836e-06 10.3196 4360.1 4888.33 
289 6.4452 6.4452 0 0.000918862 0.000918862 -1.08057e-06 9.77451 4167.56 4673.82 
329 5.6088 5.6088 0 0.000770114 0.000770114 1.44688e-06 8.25243 3690.34 4121.12 
369 4.441 4.441 0 0.000569567 0.000569567 -1.55541e-06 6.15906 2940.95 3295.44 
409 3.155 3.155 0 0.00036568 0.00036568 8.65729e-07 4.01249 2078.42 2317.65 
449 1.9312 1.9312 0 0.000196651 0.000196651 -1.56887e-06 2.17755 1263.97 1401.74 
489 0.9998 0.9998 0 8.01602e-05 8.01602e-05 2.97708e-07 0.978573 587.773 657.769 
529 0.4174 0.4174 0 2.40475e-05 2.40475e-05 -1.98484e-07 0.365339 213.392 244.139 
569 0.1468 0.1468 0 4.71467e-06 4.71467e-06 -3.21019e-07 0.116057 61.3246 71.4432 
609 0.0528 0.0528 0 5.37248e-07 5.37248e-07 -3.3645e-08 0.0358389 18.6961 22.6012 
649 0.0124 0.0124 0 -2.36143e-07 -2.36143e-07 -1.03182e-07 0.00837171 2.88178 3.63152 
689 0.005 0.005 0 -1.60027e-07 -1.60027e-07 -7.6456e-08 0.00270766 0.869355 0.973891 
729 0.0014 0.0014 0 -7.95724e-08 -7.95724e-08 5.50826e-09 0.000834305 -0.000592963 0.0544696 
769 0.003 0.003 0 -1.73238e-07 -1.73238e-07 1.85647e-08 0.00179333 0.287825 0.401829 
809 0.0064 0.0064 0 -2.9913e-07 -2.9913e-07 -7.99757e-08 0.0043522 0.833996 0.985066 
849 0.0124 0.0124 0 -2.82213e-07 -2.82213e-07 -8.94918e-09 0.007863 2.19929 2.87272 
889 0.0472 0.0472 0 2.40973e-07 2.40973e-07 7.0231e-08 0.0347142 14.9922 18.2313 
929 0.1534 0.1534 0 4.75313e-06 4.75313e-06 -3.62829e-08 0.118807 61.2483 72.2727 
969 0.409 0.409 0 2.33651e-05 2.33651e-05 7.40683e-08 0.356744 204.29 236.189 
10 0.9986 0.9986 0 7.88852e-05 7.88852e-05 -2.12438e-07 1.00309 583.19 661.039 
50 1.9172 1.9172 0 0.000195151 0.000195151 5.48418e-07 2.1845 1257.93 1399.56 
90 3.144 3.144 0 0.000366537 0.000366537 8.57493e-07 4.00437 2106.39 2333.4 
130 4.4642 4.4642 0 0.000572978 0.000572978 -2.74433e-06 6.19814 2926.06 3276.36 
170 5.5406 5.5406 0 0.000762843 0.000762843 2.15691e-06 8.17215 3622.07 4070.16 
210 6.3852 6.3852 0 0.000914404 0.000914404 5.30742e-09 9.72599 4153.49 4659.56 
250 6.6984 6.6984 0 0.00097324 0.00097324 5.61752e-07 10.3265 4309.35 4834.89 
290 6.3472 6.3472 0 0.000905917 0.000905917 1.91684e-07 9.64437 4105.45 4610.05 
330 5.5502 5.5502 0 0.000759897 0.000759897 7.73863e-08 8.14405 3652.08 4107.17 
370 4.3714 4.3714 0 0.00056196 0.00056196 7.82731e-07 6.07178 2910.05 3239.37 
410 3.164 3.164 0 0.000366175 0.000366175 1.5912e-06 4.00307 2071.15 2300.6 
450 1.9048 1.9048 0 0.000191075 0.000191075 1.33427e-06 2.1354 1222.15 1361.95 
490 0.9788 0.9788 0 7.78531e-05 7.78531e-05 6.50517e-07 0.959372 569.233 641.342 
530 0.422 0.422 0 2.41915e-05 2.41915e-05 4.29094e-07 0.366674 207.17 242.15 
570 0.1446 0.1446 0 4.66384e-06 4.66384e-06 2.44982e-07 0.110064 55.84 66.7367 
610 0.044 0.044 0 1.74197e-07 1.74197e-07 3.69175e-07 0.0322334 13.6853 16.3711 
650 0.0132 0.0132 0 -2.863e-07 -2.863e-07 3.91305e-08 0.00854359 2.69981 3.78501 
690 0.0044 0.0044 0 -1.95242e-07 -1.95242e-07 7.79613e-08 0.00304202 0.353278 0.542147 
730 0.003 0.003 0 -1.52763e-07 -1.52763e-07 6.40688e-08 0.00163655 -0.136843 0.0983509 
770 0.0024 0.0024 0 -1.64048e-07 -1.64048e-07 -2.77588e-08 0.00177745 -0.105387 -0.172572 
810 0.0032 0.0032 0 -1.59808e-07 -1.59808e-07 2.44814e-08 0.00212077 0.294217 0.348733 
850 0.0138 0.0138 0 -3.02313e-07 -3.02313e-07 2.62846e-08 0.00899441 3.25919 4.748 
890 0.0498 0.0498 0 2.4367e-07 2.4367e-07 -1.16146e-07 0.0362576 15.4896 19.4134 
930 0.1432 0.1432 0 4.40345e-06 4.40345e-06 4.1638e-07 0.114003 58.4043 70.4688 
970 0.406 0.406 0 2.29303e-05 2.29303e-05 1.48547e-07 0.357684 200.046 231.281 
11 0.997 0.997 0 8.34054e-05 8.34054e-05 -3.40868e-07 0.983684 614.202 688.398 
51 1.9874 1.9874 0 0.000199701 0.000199701 3.17406e-07 2.23236 1273.19 1423.14 
91 3.1362 3.1362 0 0.000369672 0.000369672 2.56974e-07 4.01522 2149.13 2380.96 
131 4.4514 4.4514 0 0.000575488 0.000575488 -2.66729e-06 6.1921 2971.54 3313.43 
171 5.5422 5.5422 0 0.000764658 0.000764658 5.35989e-07 8.1725 3648.82 4076.13 
211 6.393 6.393 0 0.000921105 0.000921105 2.67114e-06 9.7972 4162.25 4673.07 
251 6.6658 6.6658 0 0.000969689 0.000969689 -2.80972e-06 10.2888 4331.52 4872.33 
291 6.35 6.35 0 0.000902656 0.000902656 -1.22324e-06 9.60221 4075.98 4573.33 
331 5.5722 5.5722 0 0.00076538 0.00076538 1.60572e-07 8.20415 3671.68 4102.25 
371 4.3404 4.3404 0 0.000557358 0.000557358 -2.43089e-06 6.00656 2907.5 3235.44 
411 3.0722 3.0722 0 0.000353826 0.000353826 1.96536e-06 3.87521 2037.4 2262.76 
451 1.8276 1.8276 0 0.000182734 0.000182734 -6.2057e-07 2.04862 1198.32 1326.91 
491 0.955 0.955 0 7.72367e-05 7.72367e-05 -7.88346e-07 0.931022 565.755 637.206 
531 0.3906 0.3906 0 2.13909e-05 2.13909e-05 2.16934e-07 0.341969 188.67 213.906 
571 0.1418 0.1418 0 4.4511e-06 4.4511e-06 -5.2349e-08 0.111648 57.8506 68.8683 
611 0.0446 0.0446 0 4.02074e-07 4.02074e-07 -4.52167e-08 0.0309148 15.0835 19.3781 
651 0.0122 0.0122 0 -2.08819e-07 -2.08819e-07 -7.26857e-09 0.0081364 2.35016 3.3098 
691 0.0048 0.0048 0 -2.63779e-07 -2.63779e-07 -5.10815e-08 0.00344819 -0.0201071 0.331507 
731 0.0022 0.0022 0 -1.48461e-07 -1.48461e-07 1.33897e-08 0.0016093 -0.0301796 0.182662 
771 0.0024 0.0024 0 -1.18814e-07 -1.18814e-07 -2.97046e-08 0.00133107 0.214567 0.54074 
811 0.0038 0.0038 0 -1.53135e-07 -1.53135e-07 1.221e-07 0.00252692 0.77541 0.844488 
851 0.013 0.013 0 -2.37471e-07 -2.37471e-07 5.19546e-08 0.00853719 2.18866 4.40881 
891 0.051 0.051 0 3.51835e-07 3.51835e-07 -1.71016e-07 0.0350963 12.7254 16.9819 
931 0.1632 0.1632 0 5.67778e-06 5.67778e-06 2.95814e-07 0.126766 68.5282 80.7289 
971 0.4518 0.4518 0 2.58933e-05 2.58933e-05 1.4523e-07 0.402187 222.721 255.872 
12 1.0352 1.0352 0 8.7591e-05 8.7591e-05 -5.86924e-07 1.03487 635.751 707.588 
52 2.0164 2.0164 0 0.000205855 0.000205855 -1.76052e-07 2.28764 1319.32 1472.92 
92 3.2488 3.2488 0 0.000382912 0.000382912 2.74122e-07 4.15894 2182.57 2431.2 
132 4.5314 4.5314 0 0.000583771 0.000583771 2.81594e-06 6.29717 2998.39 3338.21 
172 5.5946 5.5946 0 0.000776868 0.000776868 -1.49853e-06 8.31259 3691.46 4128.36 
212 6.485 6.485 0 0.000928858 0.000928858 1.29485e-06 9.87625 4196.38 4706.36 
252 6.6254 6.6254 0 0.000962694 0.000962694 4.99263e-07 10.2146 4284.51 4809.84 
292 6.3004 6.3004 0 0.000901452 0.000901452 5.64942e-07 9.59096 4110.59 4590.87 
332 5.4942 5.4942 0 0.00075205 0.00075205 4.2392e-07 8.05295 3623.99 4055.88 
372 4.3686 4.3686 0 0.000553659 0.000553659 -1.5077e-06 5.99606 2869.22 3195.72 
412 3.1054 3.1054 0 0.000355727 0.000355727 -4.89182e-07 3.89701 2056.88 2284.84 
452 1.8716 1.8716 0 0.000184711 0.000184711 -1.79815e-07 2.07535 1208.7 1353.61 
492 0.961 0.961 0 7.70938e-05 7.70938e-05 9.96516e-07 0.940045 571.105 638.868 
532 0.3924 0.3924 0 2.15291e-05 2.15291e-05 -3.74236e-07 0.346648 193.221 225.318 
572 0.143 0.143 0 4.41866e-06 4.41866e-06 2.36213e-07 0.112284 59.7047 72.5256 
612 0.0394 0.0394 0 1.16415e-07 1.16415e-07 5.04078e-08 0.0286444 12.6539 15.9538 
652 0.0118 0.0118 0 -2.66377e-07 -2.66377e-07 -7.03973e-10 0.00825152 2.16466 3.09204 
692 0.0054 0.0054 0 -2.65429e-07 -2.65429e-07 -3.57792e-09 0.00374426 1.35637 2.08155 
732 0.0024 0.0024 0 -1.48184e-07 -1.48184e-07 -2.9016e-09 0.00155597 0.272153 0.724925 
772 0.0034 0.0034 0 -1.73804e-07 -1.73804e-07 1.01949e-08 0.0019495 0.018344 0.196256 
812 0.0048 0.0048 0 -2.10727e-07 -2.10727e-07 4.0895e-09 0.00293083 0.298265 0.505769 
852 0.014 0.014 0 -2.35061e-07 -2.35061e-07 -5.40863e-08 0.00890539 3.60777 4.79383 
892 0.0486 0.0486 0 2.55318e-07 2.55318e-07 -8.33589e-08 0.0344668 15.528 18.5286 
932 0.1602 0.1602 0 4.89787e-06 4.89787e-06 4.0458e-08 0.128003 62.424 76.2046 
972 0.4336 0.4336 0 2.59262e-05 2.59262e-05 2.21553e-07 0.383965 229.615 259.666 
13 1.0504 1.0504 0 8.92011e-05 8.92011e-05 4.62136e-08 1.06286 649.276 731.366 
53 2.0126 2.0126 0 0.000206034 0.000206034 1.72596e-06 2.28581 1328.61 1474.94 
93 3.258 3.258 0 0.000379605 0.000379605 -2.23993e-07 4.13976 2146.2 2377.49 
133 4.4802 4.4802 0 0.000577445 0.000577445 -1.90074e-06 6.24106 2946.8 3295.73 
173 5.6086 5.6086 0 0.000774305 0.000774305 -1.68022e-06 8.28561 3698.25 4129.04 
213 6.4502 6.4502 0 0.000930264 0.000930264 2.17611e-06 9.88548 4222.17 4723.04 
253 6.668 6.668 0 0.000966626 0.000966626 1.10468e-06 10.2573 4320.79 4838.68 
293 6.3154 6.3154 0 0.000903226 0.000903226 -1.75958e-06 9.61507 4085.84 4587.02 
333 5.5102 5.5102 0 0.000751078 0.000751078 1.59683e-06 8.03583 3634.31 4058.96 
373 4.3502 4.3502 0 0.000554419 0.000554419 1.79934e-06 6.01445 2892.69 3232.96 
413 3.0238 3.0238 0 0.000348126 0.000348126 -3.53256e-07 3.7887 2010.13 2234.54 
453 1.8404 1.8404 0 0.000181831 0.000181831 1.47776e-06 2.05446 1188.74 1319.69 
493 0.9136 0.9136 0 7.31341e-05 7.31341e-05 -3.90249e-07 0.898629 532.438 601.248 
533 0.3694 0.3694 0 2.09256e-05 2.09256e-05 -8.96255e-07 0.318391 188.596 218.933 
573 0.1318 0.1318 0 3.93114e-06 3.93114e-06 2.37584e-07 0.103367 56.8206 68.8729 
613 0.0434 0.0434 0 1.05742e-07 1.05742e-07 3.50845e-08 0.0308618 13.126 17.1381 
653 0.0122 0.0122 0 -3.30628e-07 -3.30628e-07 4.76667e-08 0.00740613 1.5212 1.77508 
693 0.0046 0.0046 0 -2.31497e-07 -2.31497e-07 -2.33766e-08 0.00307219 0.667251 1.4281 
733 0.0028 0.0028 0 -2.03104e-07 -2.03104e-07 -1.19227e-08 0.00216054 -0.019677 0.180274 
773 0.0008 0.0008 0 -4.32424e-08 -4.32424e-08 2.26178e-08 0.00048561 -0.101253 0.0117385 
813 0.0046 0.0046 0 -1.81757e-07 -1.81757e-07 -4.92249e-08 0.00280347 0.214293 0.557326 
853 0.0152 0.0152 0 -1.82336e-07 -1.82336e-07 -1.02751e-07 0.0101108 4.12195 4.72302 
893 0.0518 0.0518 0 1.69276e-07 1.69276e-07 2.56269e-07 0.037387 14.6109 18.2718 
933 0.1642 0.1642 0 5.48642e-06 5.48642e-06 -1.04555e-07 0.130375 65.5952 77.8046 
973 0.4596 0.4596 0 2.79742e-05 2.79742e-05 4.38794e-07 0.406155 241.682 278.76 
14 1.0696 1.0696 0 9.10184e-05 9.10184e-05 4.17387e-07 1.08713 660.92 740.872 
54 2.05 2.05 0 0.000211773 0.000211773 1.74147e-06 2.34422 1348.64 1499.6 
94 3.2498 3.2498 0 0.000382342 0.000382342 2.85415e-07 4.17229 2166.62 2408.12 
134 4.6202 4.6202 0 0.000596517 0.000596517 6.94159e-07 6.43222 3082.78 3435.07 
174 5.674 5.674 0 0.000788299 0.000788299 2.1785e-06 8.43464 3714.72 4158.83 
214 6.3702 6.3702 0 0.000923608 0.000923608 3.91243e-06 9.81529 4215.87 4717.21 
254 6.647 6.647 0 0.000964047 0.000964047 -3.51701e-07 10.2279 4303.89 4828.9 
294 6.2796 6.2796 0 0.00089342 0.00089342 1.98155e-06 9.51001 4068.78 4562.53 
334 5.4248 5.4248 0 0.000739181 0.000739181 1.36375e-06 7.91266 3546.97 3978.7 
374 4.2836 4.2836 0 0.000543335 0.000543335 1.48725e-06 5.87547 2839.16 3162.16 
414 2.9774 2.9774 0 0.000340864 0.000340864 -1.68009e-06 3.73945 1963.29 2181.5 
454 1.8066 1.8066 0 0.000178038 0.000178038 -2.24943e-07 2.01162 1153.07 1282.37 
494 0.9158 0.9158 0 7.32632e-05 7.32632e-05 -4.7097e-07 0.896839 544.72 611.587 
534 0.3624 0.3624 0 2.03341e-05 2.03341e-05 7.35937e-08 0.315931 181.352 207.387 
574 0.1288 0.1288 0 3.87744e-06 3.87744e-06 -2.01563e-07 0.102411 49.5483 59.767 
614 0.0398 0.0398 0 1.94929e-07 1.94929e-07 6.69891e-08 0.0280404 13.0022 15.7487 
654 0.0138 0.0138 0 -2.03532e-07 -2.03532e-07 1.49558e-07 0.00827873 3.38581 5.04479 
694 0.004 0.004 0 -1.89689e-07 -1.89689e-07 -5.18859e-09 0.00281572 0.836325 1.25459 
734 0.0036 0.0036 0 -2.11894e-07 -2.11894e-07 -1.14187e-08 0.00222229 0.239423 0.33189 
774 0.0024 0.0024 0 -1.09022e-07 -1.09022e-07 5.46585e-08 0.00125454 0.11048 0.554692 
814 0.0068 0.0068 0 -3.27233e-07 -3.27233e-07 4.54065e-08 0.0048075 1.20051 1.60311 
854 0.016 0.016 0 -2.67623e-07 -2.67623e-07 1.24234e-07 0.0111197 3.89435 4.92932 
894 0.055 0.055 0 6.33673e-07 6.33673e-07 -1.18491e-07 0.0396339 17.8313 22.4508 
934 0.1546 0.1546 0 5.57644e-06 5.57644e-06 3.14083e-07 0.125176 66.0244 78.5692 
974 0.4498 0.4498 0 2.75094e-05 2.75094e-05 3.0408e-08 0.398794 239.59 271.502 
15 1.085 1.085 0 9.15753e-05 9.15753e-05 6.03464e-07 1.09966 647.701 725.926 
55 2.0878 2.0878 0 0.000214803 0.000214803 -8.71608e-07 2.37647 1344.91 1492.71 
95 3.3146 3.3146 0 0.000389941 0.000389941 -1.18389e-06 4.237 2208.87 2453.33 
135 4.5834 4.5834 0 0.000592388 0.000592388 6.71655e-07 6.4116 3033.41 3378.85 
175 5.7202 5.7202 0 0.000792735 0.000792735 -1.57119e-07 8.47838 3752.14 4207.19 
215 6.4032 6.4032 0 0.000922511 0.000922511 1.32024e-07 9.80855 4138.05 4621.4 
255 6.6526 6.6526 0 0.000967852 0.000967852 2.54545e-07 10.2702 4335.52 4844.87 
295 6.3318 6.3318 0 0.000901411 0.000901411 1.52583e-07 9.5935 4097.47 4608.57 
335 5.447 5.447 0 0.000741973 0.000741973 1.38855e-06 7.9554 3567.62 3975.71 
375 4.2634 4.2634 0 0.000537746 0.000537746 -1.23978e-06 5.82327 2792.63 3103.51 
415 2.9442 2.9442 0 0.000335008 0.000335008 2.65742e-07 3.66858 1936.82 2159.16 
455 1.7608 1.7608 0 0.000173959 0.000173959 -2.51433e-07 1.95895 1130.49 1257.71 
495 0.8836 0.8836 0 6.91427e-05 6.91427e-05 2.0624e-08 0.862102 523.722 593.052 