ITEM: TIMESTEP
25000
ITEM: NUMBER OF SURFS
1000
ITEM: BOX BOUNDS oo rr pp
0 0.3
0 0.3
-0.5 0.5
ITEM: SURFS id f_4[1] f_4[2] f_4[3] f_4[4] f_4[5] f_4[6] f_4[7] f_4[8] f_4[9] 
1 1.125 1.125 0 0.00125081 0.00125081 2.02503e-05 51.265 6685.93 8861.63 
41 2.031 2.031 0 0.00382847 0.00382847 -2.16289e-05 92.6883 10601.4 14477.7 
81 3.5136 3.5136 0 0.0094401 0.0094401 7.09272e-05 160.479 17694.5 24677.6 
121 5.3312 5.3312 0 0.0179445 0.0179445 0.000100995 245.596 25671.5 35335.8 
161 7.233 7.233 0 0.0277838 0.0277838 -5.44272e-05 331.863 33281.4 47181.5 
201 8.7546 8.7546 0 0.0367415 0.0367415 -2.23739e-07 403.605 38439.8 54432.5 
241 9.6492 9.6492 0 0.0416608 0.0416608 6.60357e-05 442.513 41124.6 58620.8 
281 9.1328 9.1328 0 0.0393445 0.0393445 -4.16004e-05 423.185 43430.6 60386.7 
321 7.8746 7.8746 0 0.0319005 0.0319005 -0.000101459 364.328 37167 51619.4 
361 6.1396 6.1396 0 0.0219235 0.0219235 -0.00010613 281.555 27290 38317.6 
401 4.2034 4.2034 0 0.0126841 0.0126841 -2.78374e-05 193.466 21056.7 28971.2 
441 2.6038 2.6038 0 0.00583112 0.00583112 1.39321e-05 119.44 13491.9 18488.6 
481 1.464 1.464 0 0.00206239 0.00206239 -4.56865e-05 66.6614 7408.29 10131.2 
521 0.7716 0.7716 0 0.000575756 0.000575756 3.56179e-06 34.8813 4949.09 6348.66 
561 0.3834 0.3834 0 -2.59781e-07 -2.59781e-07 -2.58998e-05 16.6527 2466.82 3124.76 
601 0.1746 0.1746 0 -0.000119838 -0.000119838 -8.61707e-06 7.11127 1229.59 1583.81 
641 0.1024 0.1024 0 -0.00018806 -0.00018806 -9.33043e-06 4.03121 676.319 824.661 
681 0.1386 0.1386 0 -0.000489176 -0.000489176 -1.00245e-06 6.03785 662.892 918.735 
721 0.1962 0.1962 0 -0.000807828 -0.000807828 -1.1311e-05 8.70736 658.835 987.83 
761 0.2094 0.2094 0 -0.000880831 -0.000880831 -1.18396e-06 9.36625 888.407 1268.91 
801 0.1532 0.1532 0 -0.000595093 -0.000595093 -3.50443e-06 6.68585 578.454 925.478 
841 0.0964 0.0964 0 -0.000252071 -0.000252071 -6.18543e-06 3.93853 523.892 668.105 
881 0.1256 0.1256 0 -0.000135677 -0.000135677 -9.84583e-06 5.07296 959.829 1156.97 
921 0.2712 0.2712 0 -0.00010105 -0.00010105 1.5709e-05 11.5735 1814.72 2312.77 
961 0.5748 0.5748 0 0.0002234 0.0002234 -1.01022e-05 25.5982 3822.74 4899.02 
2 1.149 1.149 0 0.00135587 0.00135587 4.05915e-05 52.106 6430.32 8698.7 
42 2.0912 2.0912 0 0.00408638 0.00408638 -4.157e-05 95.6875 10773.4 14726.5 
82 3.466 3.466 0 0.00930876 0.00930876 1.3797e-05 159.029 17219.9 23887.6 
122 5.3216 5.3216 0 0.0176616 0.0176616 -4.53569e-05 243.314 24270.4 34149.7 
162 7.2864 7.2864 0 0.0281662 0.0281662 6.65654e-05 335.591 34615 47857.2 
202 8.9652 8.9652 0 0.0375555 0.0375555 0.000162878 412.157 38941.5 54738.1 
242 9.648 9.648 0 0.0416761 0.0416761 -5.23158e-06 442.592 42353.5 60041.6 
282 9.2148 9.2148 0 0.039488 0.039488 -3.43542e-06 425.361 41820.1 59518.6 
322 7.9256 7.9256 0 0.0316971 0.0316971 7.93531e-05 363.167 35365 49667.4 
362 5.9952 5.9952 0 0.0214022 0.0214022 9.84653e-05 276.941 28678.2 39775.2 
402 4.0458 4.0458 0 0.0118751 0.0118751 -6.99851e-05 185.876 19105.5 26637.6 
442 2.5512 2.5512 0 0.00570321 0.00570321 -9.32185e-05 116.959 12617.5 17454.7 
482 1.4604 1.4604 0 0.00212746 0.00212746 -3.22819e-05 66.3703 8123.25 10890.3 
522 0.7436 0.7436 0 0.000544051 0.000544051 1.60201e-05 33.5509 4815.94 6028.83 
562 0.3786 0.3786 0 -5.81205e-06 -5.81205e-06 3.09634e-05 16.8716 2769.6 3507.78 
602 0.1746 0.1746 0 -0.000122734 -0.000122734 -6.82008e-06 7.25828 1229.42 1592.62 
642 0.104 0.104 0 -0.000207803 -0.000207803 -2.17854e-06 4.19841 618.439 786.865 
682 0.1242 0.1242 0 -0.000448156 -0.000448156 -1.18508e-05 5.43542 573.57 780.851 
722 0.1994 0.1994 0 -0.000822356 -0.000822356 -2.24743e-06 8.80806 742.715 1056.58 
762 0.2152 0.2152 0 -0.000940264 -0.000940264 -2.48856e-05 9.98707 812.955 1182.29 
802 0.1546 0.1546 0 -0.000596187 -0.000596187 -6.12958e-07 6.70058 617.48 826.301 
842 0.095 0.095 0 -0.000255408 -0.000255408 3.95911e-06 3.85961 499.922 631.17 
882 0.1262 0.1262 0 -0.00014755 -0.00014755 -8.93358e-06 5.17563 1012.27 1281.62 
922 0.2932 0.2932 0 -9.28611e-05 -9.28611e-05 -4.86716e-06 12.5696 2108.1 2479.56 
962 0.5966 0.5966 0 0.00021148 0.00021148 -1.13109e-05 26.7867 3694.79 4950.8 
3 1.1692 1.1692 0 0.00141564 0.00141564 1.96331e-05 52.7878 6695.83 8865.3 
43 2.108 2.108 0 0.00422495 0.00422495 2.12066e-05 96.8361 11577 15874.7 
83 3.5778 3.5778 0 0.00954978 0.00954978 5.96613e-05 163.213 17205.1 23642.9 
123 5.3354 5.3354 0 0.0179902 0.0179902 -1.42927e-05 245.788 25634.2 35407.6 
163 7.3886 7.3886 0 0.0283725 0.0283725 9.79054e-05 337.345 31743.1 45223.9 
203 9.0148 9.0148 0 0.0376594 0.0376594 5.34408e-05 412.418 37872.4 54773.7 
243 9.4382 9.4382 0 0.0411159 0.0411159 -0.000149476 436.496 42462.7 60555 
283 9.3322 9.3322 0 0.039703 0.039703 -6.0167e-05 428.216 40163.3 57333.5 
323 7.9242 7.9242 0 0.031429 0.031429 7.58887e-05 362.357 34576.1 48207.9 
363 6.1054 6.1054 0 0.0216488 0.0216488 -1.2003e-05 279.402 27843.7 39178.4 
403 4.0954 4.0954 0 0.0121686 0.0121686 -2.37934e-05 189.212 21132.7 28826.3 
443 2.5222 2.5222 0 0.00558748 0.00558748 1.27803e-05 116.055 12930 17860.2 
483 1.44 1.44 0 0.00212299 0.00212299 2.55249e-05 65.4814 8006.32 10768.1 
523 0.7538 0.7538 0 0.000564797 0.000564797 1.67666e-05 34.3907 5125.64 6599.98 
563 0.3692 0.3692 0 -2.65783e-05 -2.65783e-05 1.29251e-05 15.9185 2507.66 3187.32 
603 0.168 0.168 0 -0.000140019 -0.000140019 -5.52659e-06 6.8844 1076.13 1367.22 
643 0.097 0.097 0 -0.000188528 -0.000188528 8.37312e-07 3.91913 588.348 742.178 
683 0.1304 0.1304 0 -0.000465291 -0.000465291 1.27212e-05 5.62262 592.407 824.374 
723 0.203 0.203 0 -0.000842536 -0.000842536 -2.35396e-05 8.9886 907.13 1158.12 
763 0.2176 0.2176 0 -0.000934734 -0.000934734 -9.26529e-06 9.93518 803.181 1319.96 
803 0.1472 0.1472 0 -0.00057833 -0.00057833 -1.60645e-05 6.47604 587.764 874.709 
843 0.0924 0.0924 0 -0.000243806 -0.000243806 -9.3824e-06 3.88428 487.704 653.333 
883 0.134 0.134 0 -0.000168647 -0.000168647 1.33151e-05 5.65618 941.983 1201.62 
923 0.291 0.291 0 -8.16762e-05 -8.16762e-05 1.09213e-05 12.3843 2143.78 2680.77 
963 0.6144 0.6144 0 0.000238176 0.000238176 1.92337e-05 27.3211 3977.45 5001.84 
4 1.19 1.19 0 0.00143301 0.00143301 -5.03392e-05 53.7319 7003.97 9226.31 
44 2.1652 2.1652 0 0.00433598 0.00433598 -3.6447e-05 99.1164 11481.5 15583.4 
84 3.5896 3.5896 0 0.00991808 0.00991808 -3.59443e-06 165.264 17671.7 24544.4 
124 5.3356 5.3356 0 0.01823 0.01823 6.92181e-05 246.33 24846.4 35172.7 
164 7.3286 7.3286 0 0.0285371 0.0285371 3.54689e-05 337.534 34541.6 48570.9 
204 8.9186 8.9186 0 0.0376848 0.0376848 -4.236e-05 411.866 42533 59655.9 
244 9.631 9.631 0 0.0419804 0.0419804 -3.67025e-06 445.645 44254 61532 
284 9.2036 9.2036 0 0.0390453 0.0390453 -6.22699e-05 421.664 39192.9 56260.7 
324 7.7552 7.7552 0 0.0311247 0.0311247 1.6904e-05 358.261 36053.4 50064.7 
364 5.9246 5.9246 0 0.0212267 0.0212267 -9.15314e-05 273.928 27897.4 39244.4 
404 4.0174 4.0174 0 0.0116887 0.0116887 2.36406e-05 184.045 18861.4 26790.8 
444 2.551 2.551 0 0.00566595 0.00566595 1.32263e-05 117.72 13032.2 17812.4 
484 1.3994 1.3994 0 0.0019317 0.0019317 4.34307e-05 63.4332 7590.78 10316.9 
524 0.7386 0.7386 0 0.000471604 0.000471604 5.84081e-06 33.1733 4483.92 5746.72 
564 0.3736 0.3736 0 -2.76385e-05 -2.76385e-05 1.51435e-05 16.2764 2515.58 3142.89 
604 0.1776 0.1776 0 -0.000145221 -0.000145221 -3.66394e-05 7.39048 1289.21 1622.91 
644 0.0944 0.0944 0 -0.000198889 -0.000198889 -3.24979e-06 3.77474 585.057 792.386 
684 0.1282 0.1282 0 -0.000469562 -0.000469562 -9.70942e-06 5.53034 616.437 858.926 
724 0.211 0.211 0 -0.000871275 -0.000871275 1.0155e-05 9.36628 925.717 1301.93 
764 0.2202 0.2202 0 -0.000944686 -0.000944686 1.7358e-05 10.0316 771.165 1136.52 
804 0.1578 0.1578 0 -0.000625113 -0.000625113 5.98985e-06 7.05622 638.008 880.881 
844 0.0956 0.0956 0 -0.000236674 -0.000236674 -6.29031e-06 3.72993 484.613 602.403 
884 0.137 0.137 0 -0.000162518 -0.000162518 2.62974e-06 5.59165 974.05 1155.92 
924 0.2876 0.2876 0 -7.84699e-05 -7.84699e-05 -1.4389e-06 12.6279 2022.29 2530.38 
964 0.6142 0.6142 0 0.000299163 0.000299163 4.4558e-06 27.3889 3904.54 5124.26 
5 1.2172 1.2172 0 0.00145115 0.00145115 2.26349e-05 55.1502 6914.5 9110.16 
45 2.1614 2.1614 0 0.00445968 0.00445968 -7.89435e-05 99.5293 12421.4 16509.5 
85 3.553 3.553 0 0.00985723 0.00985723 8.64056e-05 164.359 18069.2 24766.8 
125 5.584 5.584 0 0.0190803 0.0190803 -2.7e-05 257.563 26494.1 36925 
165 7.3082 7.3082 0 0.0285669 0.0285669 2.22036e-06 337.273 33583 46599.7 
205 8.8608 8.8608 0 0.0376032 0.0376032 -3.85769e-07 410.18 42181.4 58501.9 
245 9.604 9.604 0 0.0418098 0.0418098 0.000103761 443.805 42743.4 60146.8 
285 9.246 9.246 0 0.0392471 0.0392471 -2.45692e-05 424.539 39418.9 56002.7 
325 7.85 7.85 0 0.0312804 0.0312804 -0.000165141 360.794 35694.4 49962.8 
365 6.049 6.049 0 0.0211732 0.0211732 -7.04283e-06 276.586 27498.9 39260.7 
405 4.0176 4.0176 0 0.0116688 0.0116688 -2.98664e-05 185.573 19691.9 27166.2 
445 2.4686 2.4686 0 0.00544428 0.00544428 2.88222e-05 113.33 12558.7 17295 
485 1.4094 1.4094 0 0.00194546 0.00194546 2.4618e-05 64.2037 7519.75 9980.26 
525 0.7266 0.7266 0 0.000440561 0.000440561 4.57733e-06 33.1594 4508.2 5878.58 
565 0.359 0.359 0 -6.0007e-05 -6.0007e-05 -2.25374e-05 15.7021 2476.75 3077.78 
605 0.1648 0.1648 0 -0.000156474 -0.000156474 8.41541e-06 6.80283 1037.16 1265.91 
645 0.0954 0.0954 0 -0.000214689 -0.000214689 -8.75743e-06 3.9796 580.641 724.617 
685 0.1338 0.1338 0 -0.000484354 -0.000484354 -1.42939e-06 5.76067 562.949 863.898 
725 0.1968 0.1968 0 -0.000842205 -0.000842205 1.29227e-05 9.05718 874.37 1207.36 
765 0.1996 0.1996 0 -0.000859708 -0.000859708 1.18629e-05 9.15771 768.507 1112.92 
805 0.1412 0.1412 0 -0.000540189 -0.000540189 2.16457e-05 6.06243 470.781 727.345 
845 0.1028 0.1028 0 -0.00025195 -0.00025195 4.37823e-06 4.1958 543.605 737.049 
885 0.1344 0.1344 0 -0.000152517 -0.000152517 -1.43954e-05 5.62775 936.903 1133.16 
925 0.301 0.301 0 -9.16416e-05 -9.16416e-05 -1.97127e-05 12.8881 2064.49 2543.11 
965 0.6348 0.6348 0 0.000294128 0.000294128 -2.31422e-06 28.1065 3873.66 4994.22 
6 1.236 1.236 0 0.00152766 0.00152766 -4.74639e-05 56.19 6907.96 9475.4 
46 2.2274 2.2274 0 0.0045674 0.0045674 8.61273e-06 102.207 11559 15900.9 
86 3.647 3.647 0 0.0100745 0.0100745 -2.5589e-05 167.815 17662.4 24335.5 
126 5.404 5.404 0 0.0184835 0.0184835 9.14233e-05 249.448 26149.2 36429.2 
166 7.4662 7.4662 0 0.0291188 0.0291188 -2.96164e-05 343.347 33091.2 47068.9 
206 9.0018 9.0018 0 0.0380984 0.0380984 -0.000113228 415.61 41474.2 57670 
246 9.5382 9.5382 0 0.0416676 0.0416676 -6.84018e-05 442.185 43293.1 60550.9 
286 9.1568 9.1568 0 0.0388323 0.0388323 0.000101852 420.39 39969.3 56424.9 
326 7.81 7.81 0 0.0309396 0.0309396 -2.48824e-05 358.203 34643.6 49093.6 
366 5.7912 5.7912 0 0.0204165 0.0204165 2.36508e-05 266.336 26996.1 37928.3 
406 3.9702 3.9702 0 0.0115956 0.0115956 5.39548e-05 182.676 19860.1 27262.1 
446 2.4404 2.4404 0 0.00531776 0.00531776 1.27864e-05 112.397 12456.3 16896.6 
486 1.3926 1.3926 0 0.00197121 0.00197121 1.82933e-05 63.0095 7858.3 10522.3 
526 0.7166 0.7166 0 0.000433117 0.000433117 -1.27752e-05 32.2198 4571.68 5998.23 
566 0.3508 0.3508 0 -9.1184e-05 -9.1184e-05 -1.39744e-05 15.4704 2432.65 2982.18 
606 0.1532 0.1532 0 -0.000149459 -0.000149459 -2.5305e-06 6.4717 1014.16 1276.2 
646 0.0954 0.0954 0 -0.000218367 -0.000218367 1.9518e-06 3.9907 555.047 632.039 
686 0.1358 0.1358 0 -0.000506068 -0.000506068 2.73355e-05 5.9395 569.225 778.601 
726 0.1982 0.1982 0 -0.000842849 -0.000842849 2.59801e-06 9.02168 758.537 1083.68 
766 0.2062 0.2062 0 -0.00087902 -0.00087902 6.15079e-06 9.35783 847.205 1290.85 
806 0.1446 0.1446 0 -0.000554149 -0.000554149 -6.39504e-07 6.30813 557.071 762.602 
846 0.09 0.09 0 -0.000215792 -0.000215792 -4.3164e-07 3.69016 558.904 729.52 
886 0.14 0.14 0 -0.000146372 -0.000146372 -9.35318e-06 5.795 1015.89 1268.58 
926 0.3044 0.3044 0 -7.35554e-05 -7.35554e-05 3.7188e-06 13.0698 2006.57 2576.23 
966 0.6388 0.6388 0 0.0003065 0.0003065 -1.20132e-05 28.4276 3842.82 4993.11 
7 1.242 1.242 0 0.00158602 0.00158602 5.12324e-05 56.6324 7407.15 10041 
47 2.2222 2.2222 0 0.00453965 0.00453965 -1.8069e-05 102.195 11206 15159.3 
87 3.7554 3.7554 0 0.0105932 0.0105932 -6.61656e-05 172.918 18565.4 25791.8 
127 5.6018 5.6018 0 0.0189912 0.0189912 3.73214e-05 255.942 24833.1 35366.5 
167 7.5904 7.5904 0 0.0297126 0.0297126 1.47139e-05 348.476 33930.2 47809.6 
207 9.0062 9.0062 0 0.038009 0.038009 -0.0001162 414.255 39599.2 56296.2 
247 9.575 9.575 0 0.0415945 0.0415945 3.59216e-05 441.402 45291.9 63063.2 
287 9.1588 9.1588 0 0.0392158 0.0392158 -1.09448e-05 424.449 42166.3 58750.3 
327 7.7688 7.7688 0 0.0307723 0.0307723 -5.82776e-05 356.89 33830.7 47818.1 
367 5.8336 5.8336 0 0.0204624 0.0204624 2.03863e-05 268.977 27991.7 38857 
407 3.921 3.921 0 0.0110995 0.0110995 2.18561e-05 179.748 18353.6 25619.2 
447 2.3986 2.3986 0 0.00515802 0.00515802 6.43455e-06 110.833 12295.7 16942.5 
487 1.3198 1.3198 0 0.00182256 0.00182256 -1.25633e-06 60.096 7415.39 10159.2 
527 0.71 0.71 0 0.000415319 0.000415319 -1.31419e-05 31.7527 4461.28 6183.11 
567 0.3514 0.3514 0 -6.09647e-05 -6.09647e-05 5.88129e-06 15.1723 2301.89 2829.27 
607 0.1574 0.1574 0 -0.000124169 -0.000124169 -2.90004e-06 6.4631 1135.94 1447.03 
647 0.0956 0.0956 0 -0.000188234 -0.000188234 3.88249e-06 3.79401 642.39 863.75 
687 0.1358 0.1358 0 -0.000486154 -0.000486154 -4.87858e-07 5.71895 495.288 723.83 
727 0.2078 0.2078 0 -0.000863078 -0.000863078 1.20465e-05 9.21439 665.084 1065.17 
767 0.1984 0.1984 0 -0.000846054 -0.000846054 -3.00689e-07 9.0091 759.402 1155.52 
807 0.1564 0.1564 0 -0.000582184 -0.000582184 1.27974e-05 6.71584 628.538 849.124 
847 0.101 0.101 0 -0.000247923 -0.000247923 1.17417e-05 4.00071 448.535 570.608 
887 0.1476 0.1476 0 -0.000166219 -0.000166219 -8.98499e-06 6.15104 1011.58 1160.88 
927 0.3168 0.3168 0 -8.86082e-05 -8.86082e-05 3.78338e-06 13.7929 2030.13 2534.64 
967 0.6644 0.6644 0 0.000316999 0.000316999 -1.54523e-05 29.3945 4224.49 5420.36 
8 1.3068 1.3068 0 0.00178218 0.00178218 2.12362e-05 60.0503 7743.64 10252.3 
48 2.247 2.247 0 0.00464866 0.00464866 -1.79446e-05 102.286 11629.1 16104 
88 3.7276 3.7276 0 0.0104726 0.0104726 -4.35182e-05 171.976 18372.6 25584.5 
128 5.5942 5.5942 0 0.019472 0.019472 -0.00015138 258.668 26819.3 37500.5 
168 7.3856 7.3856 0 0.0291928 0.0291928 7.28095e-05 341.647 35584 49314.5 
208 9.073 9.073 0 0.0381225 0.0381225 -5.88722e-05 415.464 38424.6 54200.4 
248 9.5862 9.5862 0 0.0416739 0.0416739 -4.79476e-05 442.18 44795 62363.1 
288 8.937 8.937 0 0.0384129 0.0384129 -7.63532e-05 416.216 43524.2 60525.1 
328 7.646 7.646 0 0.0304932 0.0304932 2.28272e-05 353.803 37219.3 50591.7 
368 5.7548 5.7548 0 0.0199294 0.0199294 7.80332e-05 264.249 26316.5 37330.8 
408 3.7826 3.7826 0 0.0108571 0.0108571 8.59486e-05 175.193 18503.4 25926.8 
448 2.3626 2.3626 0 0.00497948 0.00497948 3.06784e-05 107.751 12033.6 16448 
488 1.324 1.324 0 0.00173718 0.00173718 -2.5907e-05 60.2454 7459.72 9802.18 
528 0.6772 0.6772 0 0.000437715 0.000437715 -4.0696e-06 30.4767 4671.26 5961.52 
568 0.3358 0.3358 0 -4.60388e-05 -4.60388e-05 -1.46595e-05 14.5758 2257.15 2949.13 
608 0.1526 0.1526 0 -0.000136857 -0.000136857 -1.25076e-05 6.27222 1040.54 1285.95 
648 0.087 0.087 0 -0.000190611 -0.000190611 9.53609e-07 3.53957 427.089 520.44 
688 0.1368 0.1368 0 -0.000493926 -0.000493926 -2.98226e-06 5.86235 557.008 792.082 
728 0.2048 0.2048 0 -0.000880639 -0.000880639 5.77501e-06 9.37173 775.27 1172.52 
768 0.2156 0.2156 0 -0.000935889 -0.000935889 -3.78332e-06 9.96326 879.819 1213.83 
808 0.1448 0.1448 0 -0.000540156 -0.000540156 3.33566e-06 6.26323 611.93 873.568 
848 0.1016 0.1016 0 -0.000255213 -0.000255213 -6.82657e-07 4.19123 600.093 765.335 
888 0.151 0.151 0 -0.000138387 -0.000138387 -1.33786e-06 6.26675 1077.9 1395.76 
928 0.311 0.311 0 -4.05473e-05 -4.05473e-05 1.02492e-05 13.236 2260.96 2735.9 
968 0.6642 0.6642 0 0.000316953 0.000316953 -3.25517e-05 29.5227 4135.35 5230.82 
9 1.3024 1.3024 0 0.00171067 0.00171067 -2.49924e-05 59.453 7407.38 10064.8 
49 2.3492 2.3492 0 0.00493026 0.00493026 -1.34466e-05 107.789 12044 16631.5 
89 3.7582 3.7582 0 0.0106358 0.0106358 -1.06952e-05 172.717 17604.7 24814.3 
129 5.628 5.628 0 0.0193456 0.0193456 -2.25126e-05 258.821 26116.8 36639.7 
169 7.6402 7.6402 0 0.0300026 0.0300026 9.61978e-05 350.764 34183.7 47965.1 
209 9.0502 9.0502 0 0.0382298 0.0382298 -0.000120079 415.343 40082.2 56760 
249 9.5418 9.5418 0 0.0416307 0.0416307 -0.000128049 441.718 43547.8 60367.5 
289 9.0328 9.0328 0 0.0384957 0.0384957 6.89309e-05 417.508 41756.3 58279.6 
329 7.659 7.659 0 0.0300711 0.0300711 2.07909e-05 350.756 33342.2 47332.4 
369 5.761 5.761 0 0.0201789 0.0201789 4.24156e-06 266.212 27638.5 38346.8 
409 3.8746 3.8746 0 0.0111204 0.0111204 -3.97101e-05 178.409 19612.7 27065.2 
449 2.3476 2.3476 0 0.00501003 0.00501003 -0.000115766 107.883 12532.7 17047.2 
489 1.3208 1.3208 0 0.00177466 0.00177466 2.55852e-05 60.0994 7387.43 9974.21 
529 0.6924 0.6924 0 0.000370537 0.000370537 3.94065e-06 30.9751 4685.82 6027.81 
569 0.3082 0.3082 0 -7.01361e-05 -7.01361e-05 2.26732e-05 13.2867 2027.59 2541.49 
609 0.1552 0.1552 0 -0.000128439 -0.000128439 1.19939e-05 6.51899 1135.68 1487.07 
649 0.0998 0.0998 0 -0.000239839 -0.000239839 -1.00577e-05 4.14246 596.013 779.141 
689 0.1386 0.1386 0 -0.000514351 -0.000514351 6.80558e-06 6.01408 515.571 844.9 
729 0.2008 0.2008 0 -0.000857426 -0.000857426 9.07655e-06 9.13771 846.057 1207.88 
769 0.209 0.209 0 -0.000886397 -0.000886397 -1.54015e-05 9.45125 779.108 1144.41 
809 0.1408 0.1408 0 -0.000541712 -0.000541712 -2.70673e-05 6.27105 698.712 1047.37 
849 0.0946 0.0946 0 -0.000213067 -0.000213067 5.92033e-07 3.86725 603.342 789.537 
889 0.1458 0.1458 0 -0.000126696 -0.000126696 4.04815e-06 5.97159 1195.35 1464.3 
929 0.3294 0.3294 0 -8.54432e-05 -8.54432e-05 2.68722e-05 14.3911 2185.54 2856.82 
969 0.6656 0.6656 0 0.000349599 0.000349599 1.75015e-05 29.8084 4112.16 5439.4 
10 1.2808 1.2808 0 0.00166433 0.00166433 -4.96533e-05 58.6725 7078.94 9520.69 
50 2.3402 2.3402 0 0.00498745 0.00498745 3.11363e-05 107.993 12623.1 17182.9 
90 3.9142 3.9142 0 0.0112044 0.0112044 -4.93225e-05 180.99 19024.9 26149.1 
130 5.681 5.681 0 0.0199998 0.0199998 1.69308e-05 263.693 28352.2 39586.4 
170 7.691 7.691 0 0.0301299 0.0301299 5.30103e-05 351.742 33944.5 48239.7 
210 9.1138 9.1138 0 0.0388593 0.0388593 0.000112367 421.419 42481.4 59895.1 
250 9.5566 9.5566 0 0.0416741 0.0416741 -0.00012589 442.178 44619.7 62050.8 
290 9.1604 9.1604 0 0.0386369 0.0386369 2.39572e-05 419.509 39926.6 56005.8 
330 7.6474 7.6474 0 0.0298968 0.0298968 6.8291e-05 349.938 32812.9 45905.7 
370 5.709 5.709 0 0.0194821 0.0194821 -3.74562e-05 260.555 25033.4 34872.5 
410 3.8182 3.8182 0 0.0107307 0.0107307 1.02547e-05 173.864 17873.1 24704.1 
450 2.3166 2.3166 0 0.00480817 0.00480817 2.22352e-05 105.273 11936.6 16301.2 
490 1.304 1.304 0 0.00166394 0.00166394 2.30678e-06 59.5811 7402.73 10029.1 
530 0.6634 0.6634 0 0.000375424 0.000375424 -4.60116e-05 29.86 4233.25 5685.27 
570 0.313 0.313 0 -5.25183e-05 -5.25183e-05 1.71931e-05 13.655 2288.26 2902.66 
610 0.154 0.154 0 -0.000135094 -0.000135094 8.93561e-06 6.33832 1144.75 1463.35 
650 0.0932 0.0932 0 -0.000200819 -0.000200819 -1.40594e-05 3.61523 495.58 630.934 
690 0.1438 0.1438 0 -0.000550299 -0.000550299 -2.64331e-06 6.29335 660.649 1011.48 
730 0.2102 0.2102 0 -0.000878017 -0.000878017 1.66934e-05 9.40406 782.627 1199.81 
770 0.2064 0.2064 0 -0.000896264 -0.000896264 1.3172e-05 9.57634 839.538 1252.89 
810 0.138 0.138 0 -0.00051799 -0.00051799 1.46552e-05 6.03549 512.893 773.329 
850 0.101 0.101 0 -0.000224399 -0.000224399 -5.54232e-06 4.14834 584.446 802.395 
890 0.1514 0.1514 0 -0.000122774 -0.000122774 2.50253e-06 6.08786 1046.3 1309.08 
930 0.3356 0.3356 0 -4.6016e-05 -4.6016e-05 1.81153e-05 14.5422 2372.56 2900.87 
970 0.6844 0.6844 0 0.000349009 0.000349009 1.68856e-05 30.6881 4256.94 5562.63 
11 1.3192 1.3192 0 0.00179386 0.00179386 1.75461e-05 60.2559 7248.65 9843.64 
51 2.3608 2.3608 0 0.00492739 0.00492739 6.16479e-05 107.924 11717.5 16680.5 
91 3.8508 3.8508 0 0.0110924 0.0110924 6.86708e-06 178.377 19811 27140.5 
131 5.7442 5.7442 0 0.0199142 0.0199142 2.22119e-05 263.649 25577.5 35894.7 
171 7.614 7.614 0 0.0305479 0.0305479 -0.000122653 354.435 37117.5 51305.4 
211 9.0088 9.0088 0 0.0386492 0.0386492 -0.000196055 418.854 43862.9 60375 
251 9.5116 9.5116 0 0.0415394 0.0415394 3.85956e-05 440.756 44373.9 62255.3 
291 9.0508 9.0508 0 0.0380968 0.0380968 -8.92995e-05 414.236 37524.2 53425.9 
331 7.414 7.414 0 0.0294331 0.0294331 -9.33562e-06 344.144 34957.8 48830.8 
371 5.5854 5.5854 0 0.0193378 0.0193378 -0.000109959 257.926 26671.8 37665.5 
411 3.7428 3.7428 0 0.010474 0.010474 3.94232e-05 172.33 18428.8 25636.2 
451 2.2804 2.2804 0 0.00467563 0.00467563 2.42802e-05 104.27 11631.4 16394 
491 1.2496 1.2496 0 0.0016246 0.0016246 -3.94742e-05 57.0629 7153.37 9748.09 
531 0.6442 0.6442 0 0.000327506 0.000327506 3.36945e-05 28.632 4053.7 5172.35 
571 0.3196 0.3196 0 -6.58374e-05 -6.58374e-05 1.79855e-05 13.7751 2300.02 2805.23 
611 0.1562 0.1562 0 -0.000143863 -0.000143863 1.26494e-05 6.44363 1138.73 1340.04 
651 0.097 0.097 0 -0.000232351 -0.000232351 9.19728e-06 3.88788 490.03 677.94 
691 0.1508 0.1508 0 -0.00056292 -0.00056292 -3.56332e-06 6.50233 601.976 886.528 
731 0.2004 0.2004 0 -0.000849188 -0.000849188 1.35343e-06 9.03438 795.629 1208.03 
771 0.2028 0.2028 0 -0.000851264 -0.000851264 2.08675e-05 9.11462 766.955 1086.84 
811 0.131 0.131 0 -0.000490084 -0.000490084 -1.9205e-05 5.81298 503.686 709.342 
851 0.0964 0.0964 0 -0.000207407 -0.000207407 -5.93252e-06 3.83848 658.757 840.536 
891 0.152 0.152 0 -0.000156771 -0.000156771 -1.94917e-05 6.40372 1042.19 1334.26 
931 0.338 0.338 0 -3.94103e-05 -3.94103e-05 -1.09747e-05 14.7642 2386.27 2874.61 
971 0.6902 0.6902 0 0.000439437 0.000439437 -3.53676e-05 30.9895 4461.45 5647.79 
12 1.3768 1.3768 0 0.00191496 0.00191496 -3.59467e-05 62.7571 7705.42 10451.1 
52 2.4092 2.4092 0 0.00498879 0.00498879 -1.91591e-05 109.893 11975.4 16349.3 
92 3.9486 3.9486 0 0.0111852 0.0111852 -2.09152e-05 179.982 19017.2 26668.1 
132 5.849 5.849 0 0.0206044 0.0206044 6.27445e-05 270.02 28581.2 39592.3 
172 7.6188 7.6188 0 0.0301514 0.0301514 8.21218e-05 349.069 33775.2 47440.7 
212 9.0154 9.0154 0 0.038464 0.038464 6.46963e-05 416.076 42000.6 58477.4 
252 9.569 9.569 0 0.041701 0.041701 0.000161096 442.496 44730.5 61694.6 
292 9.064 9.064 0 0.0381175 0.0381175 7.24809e-06 415.349 39164.4 55328.7 
332 7.5228 7.5228 0 0.029409 0.029409 9.13187e-05 345.02 33971.9 47686.1 
372 5.595 5.595 0 0.0190638 0.0190638 -0.000168804 256.957 25864.3 35944.2 
412 3.7594 3.7594 0 0.0105475 0.0105475 1.32886e-05 173.441 19182.2 26251.4 
452 2.2268 2.2268 0 0.00456592 0.00456592 -8.62595e-05 102.716 11296 15466.1 
492 1.2546 1.2546 0 0.00158932 0.00158932 3.20906e-05 57.1693 7015.35 9431.76 
532 0.641 0.641 0 0.000337043 0.000337043 -4.87486e-06 28.6365 4020.72 5330.25 
572 0.3168 0.3168 0 -5.52342e-05 -5.52342e-05 -8.90381e-06 13.6358 2126.26 2741.64 
612 0.1376 0.1376 0 -0.000137891 -0.000137891 -3.91559e-06 5.69254 1015.31 1287.8 
652 0.091 0.091 0 -0.000219191 -0.000219191 2.98535e-06 3.69763 409.43 597.503 
692 0.147 0.147 0 -0.000566104 -0.000566104 1.96157e-05 6.48051 527.201 858.983 
732 0.2132 0.2132 0 -0.000917456 -0.000917456 -5.41541e-06 9.79297 922.694 1308.87 
772 0.1996 0.1996 0 -0.000840056 -0.000840056 2.38214e-05 8.9825 796.193 1209.56 
812 0.1316 0.1316 0 -0.000479908 -0.000479908 2.46337e-06 5.72065 662.966 903.226 
852 0.0994 0.0994 0 -0.000212429 -0.000212429 -3.21139e-06 3.87747 561.118 720.469 
892 0.1536 0.1536 0 -0.000144889 -0.000144889 7.6726e-06 6.32143 998.182 1125.85 
932 0.3332 0.3332 0 -4.98159e-05 -4.98159e-05 -1.65245e-05 14.3096 2237.79 2813.16 
972 0.6912 0.6912 0 0.000405772 0.000405772 1.33593e-05 31.0617 4140.99 5490.62 
13 1.3796 1.3796 0 0.00191795 0.00191795 -3.58067e-05 62.7072 7852.67 10526.8 
53 2.4474 2.4474 0 0.00524771 0.00524771 -3.65473e-05 110.988 12181.6 16951.2 
93 4.0058 4.0058 0 0.011648 0.011648 -7.13179e-05 183.599 19489 27027 
133 5.7618 5.7618 0 0.0201773 0.0201773 -6.84244e-06 263.608 25816.5 35990.4 
173 7.7986 7.7986 0 0.0309853 0.0309853 2.68572e-05 359.184 34333.5 48353.2 
213 9.2448 9.2448 0 0.0392609 0.0392609 9.92291e-05 424.368 40357.2 57316.2 
253 9.6066 9.6066 0 0.0418842 0.0418842 1.92596e-05 444.499 44560.4 62112.7 
293 8.9536 8.9536 0 0.0378344 0.0378344 -6.93513e-05 412.526 40042.7 56129.1 
333 7.4582 7.4582 0 0.0290019 0.0290019 -9.51008e-05 342.436 33299 46151.9 
373 5.4004 5.4004 0 0.0185466 0.0185466 0.000145676 249.208 25751.9 36498.3 
413 3.704 3.704 0 0.0101719 0.0101719 -0.000105156 170.353 17946.7 24887.7 
453 2.2202 2.2202 0 0.00448305 0.00448305 -5.00677e-06 101.637 11504.6 15805.8 
493 1.2336 1.2336 0 0.00157227 0.00157227 5.00098e-05 56.4794 7736.2 10074.5 
533 0.6406 0.6406 0 0.000291103 0.000291103 -1.52434e-05 28.4951 4085.94 5209.57 
573 0.2994 0.2994 0 -9.66724e-05 -9.66724e-05 1.07634e-05 12.7852 2026.51 2584.21 
613 0.1466 0.1466 0 -0.00015091 -0.00015091 4.93133e-06 6.01051 1024.37 1280.42 
653 0.0892 0.0892 0 -0.000204525 -0.000204525 1.35127e-05 3.52567 532.463 633.994 
693 0.1376 0.1376 0 -0.000534366 -0.000534366 -4.451e-06 6.12298 569.745 810.111 
733 0.2136 0.2136 0 -0.000912684 -0.000912684 -6.32442e-06 9.71511 759.102 1179.91 
773 0.2032 0.2032 0 -0.000852163 -0.000852163 1.44263e-06 9.08764 816.703 1164.75 
813 0.135 0.135 0 -0.000487403 -0.000487403 -4.09667e-06 5.71391 500.464 765.219 
853 0.0904 0.0904 0 -0.000191367 -0.000191367 -4.8913e-06 3.65261 559.944 696.663 
893 0.165 0.165 0 -0.000149401 -0.000149401 -4.03841e-06 7.00024 1223.17 1498.79 
933 0.3564 0.3564 0 -5.16962e-05 -5.16962e-05 -7.88019e-06 15.381 2625.23 3184.48 
973 0.7188 0.7188 0 0.000435893 0.000435893 -1.97413e-05 32.449 4448.39 5697.2 
14 1.3946 1.3946 0 0.0019095 0.0019095 4.21534e-05 63.2186 7640.76 10220.3 
54 2.4578 2.4578 0 0.00539676 0.00539676 3.94879e-06 112.411 12713.6 17186.5 
94 3.9696 3.9696 0 0.0113545 0.0113545 -4.20275e-05 182.857 19040.9 26632.6 
134 5.994 5.994 0 0.0210963 0.0210963 3.86566e-05 275.896 28595.4 39561.2 
174 7.826 7.826 0 0.0311361 0.0311361 -0.000129932 359.141 35917.9 50517 
214 9.2438 9.2438 0 0.0391709 0.0391709 5.28205e-05 423.387 39455.8 55843.3 
254 9.5448 9.5448 0 0.0415128 0.0415128 9.78753e-06 440.64 43485.8 60853.5 
294 8.8266 8.8266 0 0.0375067 0.0375067 -3.99881e-05 409.234 41787.2 58337.7 
334 7.326 7.326 0 0.028522 0.028522 -7.08611e-05 336.511 32841.2 45716.1 
374 5.501 5.501 0 0.0186937 0.0186937 -1.81781e-05 252 25497.6 35951.9 
414 3.5872 3.5872 0 0.00993943 0.00993943 4.81448e-06 165.219 17929 24823.2 
454 2.1452 2.1452 0 0.00442973 0.00442973 1.94679e-05 98.3482 11674.3 15767.6 
494 1.1954 1.1954 0 0.00143348 0.00143348 -4.63712e-06 54.4437 7006.09 9297.2 
534 0.624 0.624 0 0.000293755 0.000293755 1.13648e-05 28.0251 4169.4 5225.57 
574 0.3086 0.3086 0 -7.69685e-05 -7.69685e-05 6.72546e-08 13.0548 2252.15 2743.55 
614 0.136 0.136 0 -0.000145675 -0.000145675 -9.05438e-06 5.45248 927.649 1149.76 
654 0.1022 0.1022 0 -0.000262695 -0.000262695 -1.3479e-05 4.23152 611.875 794.61 
694 0.1558 0.1558 0 -0.000588509 -0.000588509 -1.04466e-05 6.74134 683.309 943.576 
734 0.2178 0.2178 0 -0.000914531 -0.000914531 -8.03137e-06 9.7441 871.667 1174.4 
774 0.1972 0.1972 0 -0.000832345 -0.000832345 -2.67711e-06 8.90767 785.979 1184.46 
814 0.1408 0.1408 0 -0.000501379 -0.000501379 -8.60208e-06 5.89214 562.993 816.971 
854 0.096 0.096 0 -0.000202674 -0.000202674 -7.81213e-06 3.91466 553.119 658.432 
894 0.1606 0.1606 0 -0.000136546 -0.000136546 1.40553e-05 6.58254 1175.79 1415.63 
934 0.3652 0.3652 0 -5.25831e-05 -5.25831e-05 -1.90083e-05 15.866 2252.5 2900.34 
974 0.7274 0.7274 0 0.000408791 0.000408791 -2.01127e-07 32.9006 4499.87 5969.19 
15 1.4516 1.4516 0 0.00208449 0.00208449 2.8858e-05 66.454 8664.82 11500.7 
55 2.5268 2.5268 0 0.00561057 0.00561057 1.21934e-05 116.02 13073.5 18049.3 
95 4.0464 4.0464 0 0.0117619 0.0117619 -6.44795e-06 185.323 19047.4 26864.3 
135 5.8636 5.8636 0 0.020779 0.020779 0.000187943 270.234 27709.7 38394.1 
175 7.805 7.805 0 0.0313584 0.0313584 2.62727e-05 361.155 36100.3 50587.3 
215 9.3044 9.3044 0 0.0394898 0.0394898 -7.25764e-05 426.447 40031.6 56682.3 
255 9.5906 9.5906 0 0.0416217 0.0416217 -5.34892e-05 441.736 42092.8 59994.7 
295 8.7782 8.7782 0 0.0372139 0.0372139 1.96384e-05 406.858 41309.7 57705.3 
335 7.3604 7.3604 0 0.0287176 0.0287176 -3.39587e-05 340.049 33945.9 47253.1 
375 5.4268 5.4268 0 0.0183328 0.0183328 3.0199e-05 249.491 24676.3 35045.5 
415 3.6198 3.6198 0 0.00995672 0.00995672 -0.000128704 165.786 18654.7 25647.5 
455 2.1594 2.1594 0 0.00443167 0.00443167 -1.88385e-05 99.7169 11794.9 15984.4 
495 1.1972 1.1972 0 0.00142661 0.00142661 -3.03235e-05 54.3446 7102.8 9394.22 
535 0.6044 0.6044 0 0.000229446 0.000229446 -3.42514e-05 26.7972 3848.08 5039.19 
575 0.294 0.294 0 -7.50215e-05 -7.50215e-05 1.28284e-07 12.8675 1993.33 2497.87 
615 0.1444 0.1444 0 -0.000153071 -0.000153071 -1.93554e-05 5.86161 1074.67 1336.24 
655 0.0958 0.0958 0 -0.00024546 -0.00024546 1.31226e-05 3.95614 557.058 727.215 
695 0.1472 0.1472 0 -0.00055987 -0.00055987 -4.86406e-06 6.39236 645.93 910.634 
735 0.2034 0.2034 0 -0.0008555 -0.0008555 -2.86514e-05 9.09265 799.345 1180.8 
775 0.1854 0.1854 0 -0.000763715 -0.000763715 -1.24982e-05 8.17615 681.016 1029.46 
815 0.1282 0.1282 0 -0.000466991 -0.000466991 8.84875e-06 5.5279 522.667 784.131 
855 0.0982 0.0982 0 -0.000198195 -0.000198195 -6.19665e-06 3.89025 640.016 730.143 
895 0.1618 0.1618 0 -0.000117954 -0.000117954 -4.86635e-06 6.56586 1107.9 1407.27 
935 0.3638 0.3638 0 -1.00164e-05 -1.00164e-05 9.91753e-06 15.9293 2550.07 3359.64 
975 0.7428 0.7428 0 0.000522775 0.000522775 2.12944e-05 33.2507 4492.52 5944.87 
16 1.4362 1.4362 0 0.00206849 0.00206849 -7.26896e-05 65.4716 8491.76 11045 