ITEM: TIMESTEP
25000
ITEM: NUMBER OF SURFS
1000
ITEM: BOX BOUNDS oo rr pp
0 0.3
0 0.3
-0.5 0.5
ITEM: SURFS id f_4[1] f_4[2] f_4[3] f_4[4] f_4[5] f_4[6] f_4[7] f_4[8] f_4[9] 
1 1.1574 1.1574 0 0.00840379 0.00840379 0.00014019 495.148 25939.7 32307.1 
41 2.1676 2.1676 0 0.0326949 0.0326949 0.000216557 921.303 41712.6 58975.6 
81 3.6748 3.6748 0 0.0916957 0.0916957 -0.00199292 1608.43 113702 151512 
121 5.3992 5.3992 0 0.174865 0.174865 0.000240348 2395.3 179382 249797 
161 7.7394 7.7394 0 0.282792 0.282792 0.00081216 3382.2 207231 295621 
201 8.9508 8.9508 0 0.361279 0.361279 -0.000915923 3968.09 272848 390457 
241 10.024 10.024 0 0.414147 0.414147 -0.000117811 4399.51 269017 388770 
281 9.463 9.463 0 0.394469 0.394469 -0.000433998 4238.44 337538 487229 
321 8.248 8.248 0 0.321652 0.321652 0.000296707 3676.42 291781 410579 
361 6.652 6.652 0 0.226261 0.226261 -0.000612099 2901.89 185708 263672 
401 4.6358 4.6358 0 0.129248 0.129248 0.000150536 2008.03 125889 172076 
441 2.8468 2.8468 0 0.0568581 0.0568581 -0.000154796 1229.81 69126.4 95413.2 
481 1.5194 1.5194 0 0.0163313 0.0163313 -0.000328118 643.694 30688.8 41090.6 
521 0.7744 0.7744 0 0.00114856 0.00114856 -3.27406e-05 328.275 16951.1 21795.7 
561 0.3776 0.3776 0 -0.00318883 -0.00318883 -0.000145759 154.821 6823.26 8068.17 
601 0.1642 0.1642 0 -0.00277839 -0.00277839 -5.58876e-06 67.6126 3419.38 3960.67 
641 0.2286 0.2286 0 -0.00704137 -0.00704137 0.000157077 95.4129 1898.6 1909.17 
681 0.2578 0.2578 0 -0.00923434 -0.00923434 3.38964e-05 106.542 1898.55 3039.64 
721 0.263 0.263 0 -0.0102779 -0.0102779 -0.000122698 110.184 3939.65 5498.16 
761 0.2824 0.2824 0 -0.0111203 -0.0111203 8.58913e-05 118.107 3055.76 4621.38 
801 0.2674 0.2674 0 -0.00989557 -0.00989557 6.6465e-05 110.592 1359.56 2695.42 
841 0.2466 0.2466 0 -0.00801135 -0.00801135 9.05607e-05 100.725 1749.49 2039.6 
881 0.1586 0.1586 0 -0.00357729 -0.00357729 -4.34062e-05 63.9167 1694.25 2310.62 
921 0.2674 0.2674 0 -0.0032257 -0.0032257 -0.000166325 111.758 4314.51 5004.28 
961 0.5704 0.5704 0 -0.00102518 -0.00102518 1.30815e-05 239.018 8966.57 12056.3 
2 1.216 1.216 0 0.00856076 0.00856076 -0.000217091 517.89 24506.7 33075.4 
42 2.1342 2.1342 0 0.0344788 0.0344788 0.000224094 911.117 46056.6 59603 
82 3.57 3.57 0 0.0864814 0.0864814 0.00069027 1537.67 81350 113192 
122 5.621 5.621 0 0.176128 0.176128 -0.000358448 2432.39 132485 182975 
162 7.4044 7.4044 0 0.277891 0.277891 -0.000125699 3287.91 240222 341334 
202 9.4272 9.4272 0 0.377514 0.377514 0.000611135 4137.59 254207 362558 
242 9.9598 9.9598 0 0.412783 0.412783 0.000414356 4383.71 275728 401463 
282 9.7502 9.7502 0 0.400512 0.400512 -0.000387698 4312.95 286910 408803 
322 8.5638 8.5638 0 0.324693 0.324693 -0.000106418 3727.57 211881 300955 
362 6.2218 6.2218 0 0.212219 0.212219 -0.00100382 2724.08 183531 260824 
402 4.274 4.274 0 0.115573 0.115573 0.000362185 1847.69 99403.4 135703 
442 2.6682 2.6682 0 0.0518623 0.0518623 1.30442e-06 1145.22 59278.6 81588.4 
482 1.484 1.484 0 0.014605 0.014605 0.000210938 631.082 30954.4 38765.7 
522 0.7314 0.7314 0 0.000831338 0.000831338 -0.000300075 309.825 13348.2 18456.2 
562 0.3882 0.3882 0 -0.00344246 -0.00344246 -0.000266059 163.891 6437.48 7421.01 
602 0.162 0.162 0 -0.00253498 -0.00253498 -0.000159989 65.6989 2359.13 3319.66 
642 0.2242 0.2242 0 -0.00665359 -0.00665359 -1.65554e-05 91.0863 1667.29 2615.71 
682 0.2622 0.2622 0 -0.00919634 -0.00919634 0.00024001 106.57 1358.05 559.84 
722 0.2674 0.2674 0 -0.0105538 -0.0105538 4.25756e-05 113.555 2559.7 4520.36 
762 0.2568 0.2568 0 -0.0100626 -0.0100626 0.000150634 106.925 2844.45 3170.46 
802 0.2616 0.2616 0 -0.0097045 -0.0097045 -6.447e-05 108.122 2697.59 3349.13 
842 0.246 0.246 0 -0.0079039 -0.0079039 2.17262e-06 100.827 1271.9 2665.4 
882 0.1496 0.1496 0 -0.00333653 -0.00333653 -1.29488e-05 62.3802 1874.21 2386.66 
922 0.2704 0.2704 0 -0.00312296 -0.00312296 0.000141331 114.475 5416.63 6677.74 
962 0.5846 0.5846 0 -0.00160931 -0.00160931 0.000413869 251.077 11604.2 13224.9 
3 1.2282 1.2282 0 0.00921595 0.00921595 9.3749e-05 523.756 29185.6 36276.7 
43 2.3152 2.3152 0 0.0382944 0.0382944 0.000575262 995.662 57232.1 73029.8 
83 3.788 3.788 0 0.0942164 0.0942164 -0.000689358 1642.37 95637.2 130327 
123 5.7076 5.7076 0 0.184322 0.184322 0.000304384 2518.95 179576 248352 
163 7.88 7.88 0 0.287919 0.287919 0.000551389 3425.29 194597 277777 
203 9.4462 9.4462 0 0.375305 0.375305 -0.000793502 4114.62 236091 337030 
243 10.0322 10.0322 0 0.417883 0.417883 -0.000326418 4436.7 285899 413365 
283 9.5194 9.5194 0 0.38504 0.38504 0.00129131 4155.98 227949 333094 
323 8.4948 8.4948 0 0.323447 0.323447 -5.64619e-05 3714.09 230193 328075 
363 6.5738 6.5738 0 0.220911 0.220911 0.000619817 2870.17 169054 240518 
403 4.3062 4.3062 0 0.119549 0.119549 0.000235986 1887.75 128437 178489 
443 2.651 2.651 0 0.0489505 0.0489505 -0.000473152 1136.87 53256.8 71886.6 
483 1.4558 1.4558 0 0.0139056 0.0139056 -2.02306e-05 620.018 24875.8 34568.7 
523 0.7336 0.7336 0 0.000355426 0.000355426 -0.000197482 310.329 12857.4 17114.3 
563 0.3604 0.3604 0 -0.00307863 -0.00307863 2.30362e-05 149.838 6203.54 7839.89 
603 0.1776 0.1776 0 -0.00303634 -0.00303634 -6.07001e-05 72.3064 3105.23 4100.92 
643 0.2198 0.2198 0 -0.00682813 -0.00682813 -0.000292652 91.6738 1728.2 1726.65 
683 0.2676 0.2676 0 -0.00949495 -0.00949495 -0.00015399 108.731 2677.5 3314.11 
723 0.2686 0.2686 0 -0.0103831 -0.0103831 0.000104522 111.23 2617.51 3635.58 
763 0.2772 0.2772 0 -0.0110554 -0.0110554 2.31717e-05 117.607 2765.78 4566.52 
803 0.242 0.242 0 -0.00895922 -0.00895922 9.21101e-05 100.136 855.778 495.325 
843 0.2384 0.2384 0 -0.00762495 -0.00762495 -6.73599e-05 95.7405 2485.41 2137.97 
883 0.155 0.155 0 -0.00327358 -0.00327358 -1.63935e-05 63.5449 1567.46 2350.27 
923 0.2816 0.2816 0 -0.00328877 -0.00328877 -0.000112192 117.427 3969.27 4475.18 
963 0.6 0.6 0 -0.00198646 -0.00198646 0.000320633 250.352 9629.88 12589.5 
4 1.2316 1.2316 0 0.00887263 0.00887263 0.000108907 523.898 26565.5 36169.6 
44 2.3148 2.3148 0 0.0396869 0.0396869 0.000168787 999.08 59882.4 80911.7 
84 3.8776 3.8776 0 0.0991695 0.0991695 0.00068643 1690.62 106875 145538 
124 5.5226 5.5226 0 0.176794 0.176794 -0.000355851 2410.26 149336 208804 
164 7.7444 7.7444 0 0.288289 0.288289 -0.000684225 3409.46 234884 333263 
204 9.302 9.302 0 0.378107 0.378107 0.000372329 4134.84 294568 423556 
244 10.0056 10.0056 0 0.418838 0.418838 0.000499948 4445.37 302876 436803 
284 9.8846 9.8846 0 0.39998 0.39998 -0.00167553 4318.79 260911 375125 
324 7.8308 7.8308 0 0.303091 0.303091 -0.000487499 3486.69 258804 367918 
364 5.9596 5.9596 0 0.202109 0.202109 0.00161333 2627.27 185218 257536 
404 4.3514 4.3514 0 0.11706 0.11706 0.000502205 1877.66 108575 146676 
444 2.4562 2.4562 0 0.0479015 0.0479015 0.000282722 1078.24 64566.5 87813 
484 1.4152 1.4152 0 0.012645 0.012645 -3.11245e-05 601.21 27253.2 35874.8 
524 0.7104 0.7104 0 -0.000578816 -0.000578816 0.000385172 298.832 9604.48 12909.5 
564 0.3424 0.3424 0 -0.00287389 -0.00287389 9.12861e-05 142.31 4964.3 6273.01 
604 0.1572 0.1572 0 -0.00290392 -0.00290392 -6.01769e-05 66.8672 2403.93 2643.02 
644 0.2342 0.2342 0 -0.00726464 -0.00726464 -0.000114466 96.8917 1395.82 1365.93 
684 0.262 0.262 0 -0.00935965 -0.00935965 0.000128268 107.469 2461.62 2702.36 
724 0.277 0.277 0 -0.0107401 -0.0107401 0.00016568 114.921 2390.47 4496.93 
764 0.2564 0.2564 0 -0.0100459 -0.0100459 -0.000100681 106.839 2951.52 4015.06 
804 0.2604 0.2604 0 -0.00981199 -0.00981199 3.91909e-05 109.337 2090.88 3052.82 
844 0.2442 0.2442 0 -0.00794275 -0.00794275 1.31129e-05 100.719 1386.5 1507.33 
884 0.1568 0.1568 0 -0.00340993 -0.00340993 -9.9673e-05 65.8469 3281.02 3853.98 
924 0.2838 0.2838 0 -0.00308486 -0.00308486 0.000238617 116.781 4267.31 4790.47 
964 0.6184 0.6184 0 -0.00173787 -0.00173787 0.000105425 260.281 9660.42 13568.3 
5 1.2674 1.2674 0 0.00919987 0.00919987 -0.000275447 540.138 27464.6 36068.7 
45 2.161 2.161 0 0.0363766 0.0363766 0.000757733 937.011 51510.3 70204.2 
85 3.4942 3.4942 0 0.0890036 0.0890036 0.000198434 1521.88 93699 127145 
125 6.007 6.007 0 0.193498 0.193498 -0.000390523 2629.76 157691 224079 
165 7.6832 7.6832 0 0.289421 0.289421 -0.000620588 3400.29 226532 321570 
205 9.2256 9.2256 0 0.379162 0.379162 -0.000719963 4135.1 314143 452950 
245 9.9144 9.9144 0 0.414188 0.414188 -0.0013766 4395.72 314076 451668 
285 9.4548 9.4548 0 0.385787 0.385787 0.000654878 4167.94 269365 389139 
325 8.3478 8.3478 0 0.318383 0.318383 -0.00117938 3670.68 237413 338503 
365 6.5078 6.5078 0 0.216864 0.216864 -0.00176676 2836.93 167465 239507 
405 4.0704 4.0704 0 0.108423 0.108423 -6.48039e-05 1756.8 102818 141000 
445 2.639 2.639 0 0.0508682 0.0508682 1.00108e-05 1139.75 65354.4 86278.4 
485 1.4038 1.4038 0 0.0125775 0.0125775 -0.000231057 596.853 27111.3 37478.4 
525 0.737 0.737 0 -0.000729699 -0.000729699 -0.000458894 308.431 13467.3 17609.7 
565 0.3408 0.3408 0 -0.00310036 -0.00310036 0.000335422 141.781 5521.62 6829.79 
605 0.1582 0.1582 0 -0.00281696 -0.00281696 -2.47125e-05 65.0694 2116.26 2826.74 
645 0.2262 0.2262 0 -0.00687563 -0.00687563 -0.000101029 91.7323 1398.51 1689.04 
685 0.2522 0.2522 0 -0.00910993 -0.00910993 -0.000119161 105.033 632.281 986.852 
725 0.266 0.266 0 -0.0104635 -0.0104635 -0.000218379 112.268 3735.26 5587.13 
765 0.2758 0.2758 0 -0.010853 -0.010853 -5.79739e-05 115.423 3932.09 4980.73 
805 0.2626 0.2626 0 -0.00965986 -0.00965986 -6.78365e-05 108.728 1106.28 1957.68 
845 0.2498 0.2498 0 -0.00796062 -0.00796062 0.000329517 100.975 1095.11 1167.04 
885 0.1532 0.1532 0 -0.00310212 -0.00310212 -2.96292e-05 61.9596 1912.36 2444.53 
925 0.2708 0.2708 0 -0.00290725 -0.00290725 8.95624e-06 112.27 5498.55 7041.82 
965 0.6328 0.6328 0 -0.00165842 -0.00165842 0.000349082 263.301 9820.93 13189.1 
6 1.2952 1.2952 0 0.00992507 0.00992507 0.000147771 556.472 28165.8 36464 
46 2.3334 2.3334 0 0.0368305 0.0368305 -1.46625e-05 994.162 42711.3 56174.9 
86 4.146 4.146 0 0.103917 0.103917 -0.000123227 1778.93 85924.1 115197 
126 5.5092 5.5092 0 0.18044 0.18044 0.00114197 2425.8 168167 233113 
166 7.8092 7.8092 0 0.291147 0.291147 1.2206e-05 3422.87 224114 313486 
206 9.2194 9.2194 0 0.37508 0.37508 -0.000413171 4085.81 285875 407486 
246 9.9864 9.9864 0 0.418748 0.418748 -0.00126765 4443.5 326733 465512 
286 9.4766 9.4766 0 0.387634 0.387634 -0.000845228 4192.25 279933 406542 
326 8.1804 8.1804 0 0.30959 0.30959 0.00073545 3591.61 214080 308710 
366 6.0542 6.0542 0 0.201059 0.201059 0.000617871 2640.51 166955 235796 
406 4.2138 4.2138 0 0.115272 0.115272 0.000233784 1849.81 124173 171441 
446 2.6358 2.6358 0 0.0487203 0.0487203 0.000173572 1129.62 65575.1 85594.5 
486 1.3548 1.3548 0 0.0114564 0.0114564 0.000194662 579.765 24887.2 33452.3 
526 0.7232 0.7232 0 -0.000603744 -0.000603744 0.000114002 305.29 12574.9 17352.8 
566 0.334 0.334 0 -0.00312149 -0.00312149 0.000389662 141.752 6414.18 7593.64 
606 0.1528 0.1528 0 -0.0028642 -0.0028642 0.000211267 64.707 2027.18 2669.45 
646 0.2376 0.2376 0 -0.00735607 -0.00735607 7.44246e-05 96.2058 2207.98 3145.76 
686 0.272 0.272 0 -0.00979825 -0.00979825 8.32997e-06 111.452 908.996 2601.96 
726 0.2614 0.2614 0 -0.0102847 -0.0102847 -5.87605e-05 110.046 2298.91 3160.03 
766 0.275 0.275 0 -0.0107926 -0.0107926 -6.38359e-05 114.688 2320.67 4357.21 
806 0.2706 0.2706 0 -0.00990296 -0.00990296 -0.000167439 110.665 2446.25 2836.76 
846 0.2452 0.2452 0 -0.00794545 -0.00794545 -0.00021742 102.798 867.124 761.534 
886 0.1572 0.1572 0 -0.00304302 -0.00304302 -0.000138742 63.9719 2568.68 2916.71 
926 0.2722 0.2722 0 -0.00316792 -0.00316792 0.000115734 115.126 4280.9 5559.44 
966 0.6268 0.6268 0 -0.00186589 -0.00186589 0.000322867 267.017 9804.03 12795.8 
7 1.327 1.327 0 0.00939978 0.00939978 -0.000342745 563.49 26295.6 37132.9 
47 2.3502 2.3502 0 0.0392145 0.0392145 -0.000416368 1003.29 47617.4 63515 
87 3.9308 3.9308 0 0.103428 0.103428 0.000277813 1719.96 122584 165398 
127 6.2438 6.2438 0 0.200693 0.200693 0.000470504 2704.98 155848 214898 
167 8.2036 8.2036 0 0.30417 0.30417 0.0008395 3577.08 207369 300055 
207 9.489 9.489 0 0.383612 0.383612 0.000406021 4177.93 273017 392184 
247 9.9984 9.9984 0 0.420971 0.420971 0.000219125 4466.96 329142 478793 
287 9.423 9.423 0 0.387763 0.387763 -0.000657679 4197.6 305254 449871 
327 8.0364 8.0364 0 0.304573 0.304573 -0.000281794 3533.51 224750 321725 
367 6.1224 6.1224 0 0.206479 0.206479 7.35594e-05 2704.8 193996 270083 
407 4.3316 4.3316 0 0.113728 0.113728 0.000233193 1867.45 98636.4 137204 
447 2.5114 2.5114 0 0.0444665 0.0444665 0.000232052 1067.43 49267 68281.9 
487 1.3684 1.3684 0 0.0110358 0.0110358 -0.000263292 576.677 24603.2 33299.3 
527 0.715 0.715 0 -0.000441587 -0.000441587 0.000178695 297.945 13152 16709 
567 0.3108 0.3108 0 -0.00299748 -0.00299748 -7.80307e-05 129.511 6060.97 7122.03 
607 0.1592 0.1592 0 -0.00294785 -0.00294785 1.69184e-05 67.3404 3301.49 4100.93 
647 0.2402 0.2402 0 -0.00756439 -0.00756439 -5.97009e-05 99.1375 1164.32 1644.44 
687 0.2638 0.2638 0 -0.00947356 -0.00947356 3.8919e-05 109.442 1181.99 1179.4 
727 0.2658 0.2658 0 -0.0103392 -0.0103392 -1.58276e-05 110.281 2477.41 3773.61 
767 0.2736 0.2736 0 -0.0108389 -0.0108389 9.74024e-06 115.334 3544.03 5108.36 
807 0.2652 0.2652 0 -0.00967031 -0.00967031 4.40743e-05 108.866 1727.47 2564.46 
847 0.2362 0.2362 0 -0.00757921 -0.00757921 0.000194438 97.6513 1238.37 2103 
887 0.1466 0.1466 0 -0.0030122 -0.0030122 9.99647e-06 61.6758 2329.19 2773.05 
927 0.2962 0.2962 0 -0.00335146 -0.00335146 4.19895e-05 121.653 3510.54 3737.18 
967 0.6178 0.6178 0 -0.00104989 -0.00104989 8.24465e-05 262.184 11038.2 13658.6 
8 1.3036 1.3036 0 0.00942116 0.00942116 0.000146192 552.901 23413 32354.2 
48 2.3526 2.3526 0 0.0413808 0.0413808 0.000600836 1007.68 51994.8 68641.8 
88 3.832 3.832 0 0.0975798 0.0975798 2.0683e-05 1660.34 94954.4 133099 
128 5.6262 5.6262 0 0.186841 0.186841 -0.000389364 2494.56 186545 258235 
168 7.6074 7.6074 0 0.291049 0.291049 -9.59978e-05 3393.15 252241 360193 
208 9.379 9.379 0 0.378126 0.378126 -0.0017137 4113.24 236841 351284 
248 9.7128 9.7128 0 0.408937 0.408937 -0.000657374 4339.03 331377 483162 
288 9.1552 9.1552 0 0.380914 0.380914 0.00158338 4119.27 325566 474926 
328 7.7556 7.7556 0 0.299735 0.299735 -0.000140534 3470.59 271833 381190 
368 6.1568 6.1568 0 0.200704 0.200704 0.000670312 2661.1 147664 206811 
408 3.7992 3.7992 0 0.101416 0.101416 -0.000133381 1664.07 98402.7 135020 
448 2.4534 2.4534 0 0.0418959 0.0418959 -3.89113e-05 1049.01 47517 65746.5 
488 1.3516 1.3516 0 0.0107091 0.0107091 -0.000100568 571.908 29066.9 38379.1 
528 0.694 0.694 0 -0.000955668 -0.000955668 -0.000195575 288.818 12137.5 16128.5 
568 0.3308 0.3308 0 -0.00317171 -0.00317171 3.39566e-05 139.105 5254.05 5956.24 
608 0.1684 0.1684 0 -0.00308296 -0.00308296 -0.000147576 69.2669 2427.71 2859.83 
648 0.2298 0.2298 0 -0.00695339 -0.00695339 0.000120641 91.1739 565.149 1338.61 
688 0.2652 0.2652 0 -0.00963087 -0.00963087 8.5169e-05 109.55 1080.38 1584.91 
728 0.2682 0.2682 0 -0.0107027 -0.0107027 0.00012884 114.063 2438.8 3519.32 
768 0.268 0.268 0 -0.0104764 -0.0104764 -4.80505e-05 111.599 1539.48 2286.37 
808 0.2622 0.2622 0 -0.00971867 -0.00971867 7.8328e-05 109.288 753.971 1607.77 
848 0.2338 0.2338 0 -0.00745936 -0.00745936 -0.000135571 95.8689 1326.97 2154.25 
888 0.1572 0.1572 0 -0.00303081 -0.00303081 -3.97689e-05 65.1725 2927.01 3802.93 
928 0.2982 0.2982 0 -0.00303972 -0.00303972 -0.000249877 123.829 5108.05 6613.47 
968 0.653 0.653 0 -0.000943501 -0.000943501 -2.81637e-05 277.987 13698.1 15597.5 
9 1.3316 1.3316 0 0.00996646 0.00996646 -0.000282631 568.87 25342.4 34237.9 
49 2.4874 2.4874 0 0.0452438 0.0452438 -0.000270008 1065.53 63932.2 84945.7 
89 4.0304 4.0304 0 0.104576 0.104576 -0.000160584 1743.65 91404.2 125707 
129 6.1978 6.1978 0 0.199877 0.199877 -0.00144951 2672.88 137957 193296 
169 8.0824 8.0824 0 0.303839 0.303839 -0.000234264 3547.8 226958 323310 
209 9.566 9.566 0 0.383622 0.383622 0.000659333 4174.71 236337 338356 
249 9.8614 9.8614 0 0.416049 0.416049 -2.53224e-05 4414.49 343278 496756 
289 9.6548 9.6548 0 0.392611 0.392611 -0.000151614 4259.04 284693 410624 
329 8.2626 8.2626 0 0.307564 0.307564 2.26945e-05 3593.74 199849 286549 
369 5.8098 5.8098 0 0.195078 0.195078 -0.00025097 2574.53 200175 274299 
409 4.1556 4.1556 0 0.110903 0.110903 0.000403891 1817.21 120034 167105 
449 2.3426 2.3426 0 0.0440053 0.0440053 5.46739e-05 1024.44 71054.4 92233.4 
489 1.354 1.354 0 0.0112597 0.0112597 -0.000458798 577.879 26924.5 36930.3 
529 0.7046 0.7046 0 -0.000526783 -0.000526783 0.000181037 295.543 12555.1 16897.8 
569 0.3206 0.3206 0 -0.00330612 -0.00330612 -0.000214052 133.821 5263.12 7020.88 
609 0.1518 0.1518 0 -0.00279679 -0.00279679 -4.52888e-05 62.6503 2076.43 2593.91 
649 0.2518 0.2518 0 -0.00795375 -0.00795375 4.87648e-05 103.523 1786.33 2398.57 
689 0.2596 0.2596 0 -0.00954528 -0.00954528 -0.000153177 107.721 916.201 1339.28 
729 0.2712 0.2712 0 -0.010765 -0.010765 -3.09578e-05 115.227 3950.44 6272.27 
769 0.269 0.269 0 -0.0106738 -0.0106738 0.00014769 113.881 2383.21 4080.7 
809 0.2652 0.2652 0 -0.00958409 -0.00958409 6.38276e-05 108.206 1315.59 2329.1 
849 0.2424 0.2424 0 -0.00765058 -0.00765058 -2.3034e-05 99.7749 702.944 1265.13 
889 0.1594 0.1594 0 -0.00297516 -0.00297516 0.000126076 65.0268 2721.16 3647.49 
929 0.3008 0.3008 0 -0.00328555 -0.00328555 5.33743e-05 125.332 4279.99 5521.05 
969 0.6414 0.6414 0 -0.000689958 -0.000689958 -0.000357794 270.955 12939.8 16382 
10 1.372 1.372 0 0.0106301 0.0106301 0.000296257 578.241 24390.9 34564.5 
50 2.306 2.306 0 0.0425936 0.0425936 0.000179061 1012.36 66015.8 87080.7 
90 4.1544 4.1544 0 0.110303 0.110303 0.000187974 1809 117596 156618 
130 5.7634 5.7634 0 0.195134 0.195134 -8.20416e-05 2570.34 204304 279425 
170 8.1456 8.1456 0 0.302022 0.302022 -0.000383187 3538.24 196189 284246 
210 9.7934 9.7934 0 0.399002 0.399002 0.000338037 4330.02 282294 410644 
250 9.7736 9.7736 0 0.412509 0.412509 -0.00116078 4376.93 333529 490657 
290 9.7414 9.7414 0 0.388929 0.388929 0.00144544 4237.14 233440 346130 
330 8.1446 8.1446 0 0.307491 0.307491 -0.000809806 3580.77 223154 316638 
370 6.3076 6.3076 0 0.202272 0.202272 -0.000540757 2710.67 142285 197888 
410 3.975 3.975 0 0.10401 0.10401 0.000816202 1722.73 95191.3 131553 
450 2.5246 2.5246 0 0.0465315 0.0465315 -0.000112558 1089.36 64249.4 87026.6 
490 1.327 1.327 0 0.00943053 0.00943053 0.000248196 569.489 23428.9 31258.7 
530 0.6548 0.6548 0 -0.00063906 -0.00063906 -4.51557e-06 281.109 10924.1 13503.7 
570 0.3064 0.3064 0 -0.00311809 -0.00311809 -0.000213651 127.702 4591.07 5815.73 
610 0.1632 0.1632 0 -0.00307218 -0.00307218 8.47816e-05 66.2271 2551.01 3076.17 
650 0.2406 0.2406 0 -0.00766454 -0.00766454 6.65585e-05 99.5656 1512.95 2248.8 
690 0.269 0.269 0 -0.00993996 -0.00993996 -0.000162947 110.901 1648.56 2545.24 
730 0.2644 0.2644 0 -0.0106113 -0.0106113 2.14333e-06 113.234 3266.15 4513.1 
770 0.2724 0.2724 0 -0.0107916 -0.0107916 -0.000177385 115.081 2508.01 3870.03 
810 0.2608 0.2608 0 -0.00943567 -0.00943567 8.71271e-05 107.65 2054.71 3464.42 
850 0.2366 0.2366 0 -0.00751983 -0.00751983 0.000116452 98.1339 2331.28 3555.64 
890 0.1418 0.1418 0 -0.00268311 -0.00268311 5.03958e-05 59.4068 2834.22 3673.71 
930 0.321 0.321 0 -0.00330699 -0.00330699 -7.26752e-05 133.817 6419.3 7205.9 
970 0.6642 0.6642 0 -0.000574002 -0.000574002 0.000146752 283.401 11120.6 14421.5 
11 1.3238 1.3238 0 0.0102185 0.0102185 -0.000302777 560.724 26683.7 32600.5 
51 2.449 2.449 0 0.0416616 0.0416616 0.000791726 1041.01 46217.8 63624.2 
91 3.8694 3.8694 0 0.102447 0.102447 0.000191426 1678.86 103142 139386 
131 6.1688 6.1688 0 0.200992 0.200992 0.000665081 2666.16 147793 210896 
171 7.8354 7.8354 0 0.302134 0.302134 0.000388337 3506.77 274618 387701 
211 9.1524 9.1524 0 0.378819 0.378819 5.9124e-06 4104.46 334567 479079 
251 9.9158 9.9158 0 0.419736 0.419736 0.000636088 4453.71 349565 500728 
291 9.4404 9.4404 0 0.378827 0.378827 -0.000641614 4122.03 252157 363499 
331 7.34 7.34 0 0.28139 0.28139 0.000297363 3281.32 247583 357389 
371 5.5566 5.5566 0 0.185594 0.185594 0.00041815 2470.1 188357 258454 
411 3.7562 3.7562 0 0.0967848 0.0967848 0.000116321 1639.38 96979.6 131527 
451 2.406 2.406 0 0.0420025 0.0420025 0.000452855 1022.48 56872.5 74971.6 
491 1.326 1.326 0 0.00953018 0.00953018 0.000170056 564.55 24238.7 34218.8 
531 0.6352 0.6352 0 -0.00043952 -0.00043952 -0.000255963 268.743 12140.9 14311.2 
571 0.2972 0.2972 0 -0.00281143 -0.00281143 0.000183499 123.073 4577.76 5382.49 
611 0.1464 0.1464 0 -0.00278175 -0.00278175 8.34109e-05 59.0386 1851.16 2389.97 
651 0.2452 0.2452 0 -0.00766224 -0.00766224 0.000136624 99.264 1450.75 2133.73 
691 0.2718 0.2718 0 -0.00995601 -0.00995601 -0.000130953 112.469 1696.93 2203.87 
731 0.2632 0.2632 0 -0.0103899 -0.0103899 -3.72942e-05 110.777 3691.9 4649.43 
771 0.2652 0.2652 0 -0.0103445 -0.0103445 -0.000186149 110.449 2281.97 2715.46 
811 0.2508 0.2508 0 -0.00910769 -0.00910769 -0.000141869 103.332 1189.78 1890.45 
851 0.2256 0.2256 0 -0.00726652 -0.00726652 -0.00013113 94.0721 893.459 1430.27 
891 0.152 0.152 0 -0.00275896 -0.00275896 0.000130151 63.0507 2855 2937.52 
931 0.3162 0.3162 0 -0.00309214 -0.00309214 0.000122937 132.079 4479.16 6527.82 
971 0.6636 0.6636 0 -0.00034237 -0.00034237 -0.000469906 280.684 11648 14054.9 
12 1.397 1.397 0 0.0116166 0.0116166 -4.66318e-05 593.177 25466.9 33347.8 
52 2.483 2.483 0 0.0447099 0.0447099 0.000327772 1056.15 51958.5 68442.5 
92 4.3896 4.3896 0 0.116166 0.116166 -0.000542969 1893.54 107626 144133 
132 6.2518 6.2518 0 0.20948 0.20948 0.000492761 2752.59 195131 270326 
172 8.0072 8.0072 0 0.303394 0.303394 -0.000690596 3513.77 221817 316557 
212 9.3946 9.3946 0 0.386627 0.386627 0.000402168 4183.29 303478 437185 
252 9.906 9.906 0 0.415898 0.415898 -0.00132479 4413.26 326917 483019 
292 9.4048 9.4048 0 0.382618 0.382618 -0.000766343 4165.32 278751 403189 
332 8.2178 8.2178 0 0.30621 0.30621 0.000729679 3597.82 214300 307603 
372 6.1656 6.1656 0 0.197819 0.197819 0.000620203 2673.63 147979 211015 
412 4.0084 4.0084 0 0.104732 0.104732 1.71057e-05 1760.46 123104 165318 
452 2.281 2.281 0 0.03792 0.03792 -0.000696043 970.527 43385.2 59548.6 
492 1.3258 1.3258 0 0.00981564 0.00981564 0.000573125 566.271 26088.9 35080 
532 0.6724 0.6724 0 -0.00135813 -0.00135813 -2.53288e-05 285.46 12144.3 15295.4 
572 0.2974 0.2974 0 -0.00313521 -0.00313521 2.9541e-06 122.761 4823 5993.16 
612 0.1486 0.1486 0 -0.00298849 -0.00298849 -0.000129206 62.0105 1996.51 2720.9 
652 0.255 0.255 0 -0.00812219 -0.00812219 5.07483e-05 104.065 1523.79 2132.16 
692 0.252 0.252 0 -0.0091786 -0.0091786 4.95792e-05 104.567 2224.98 3376.29 
732 0.2704 0.2704 0 -0.0106066 -0.0106066 -0.000130745 112.934 2580.5 3398.34 
772 0.2718 0.2718 0 -0.0106533 -0.0106533 0.000126139 113.631 4418.44 5654.2 
812 0.2586 0.2586 0 -0.00933833 -0.00933833 0.000168826 106.407 287.072 347.474 
852 0.235 0.235 0 -0.00737187 -0.00737187 0.000161546 96.4011 2011.27 2716.6 
892 0.1444 0.1444 0 -0.00261933 -0.00261933 -3.30454e-07 60.7768 2190.74 2560.25 
932 0.3116 0.3116 0 -0.00279332 -0.00279332 5.06555e-05 127.975 6211.72 7269.91 
972 0.702 0.702 0 -0.000845662 -0.000845662 -0.000108489 298.067 12234.4 14951.3 
13 1.3754 1.3754 0 0.0118446 0.0118446 0.000186635 588.161 24435.6 33340.2 
53 2.6112 2.6112 0 0.0482714 0.0482714 0.000488119 1122.47 62092.8 81554.3 
93 4.162 4.162 0 0.113592 0.113592 0.000251513 1823.09 124770 170208 
133 5.9658 5.9658 0 0.19838 0.19838 -0.000909297 2602.2 157018 220890 
173 8.2446 8.2446 0 0.311997 0.311997 0.000821691 3616.56 217881 307181 
213 9.4302 9.4302 0 0.384001 0.384001 -0.000334275 4151.33 273222 397791 
253 9.9744 9.9744 0 0.420741 0.420741 -0.000248112 4464.25 336431 483007 
293 9.261 9.261 0 0.377351 0.377351 -0.000577948 4110.99 299068 425346 
333 7.7158 7.7158 0 0.287282 0.287282 0.000429972 3377.65 213956 303666 
373 5.5534 5.5534 0 0.181501 0.181501 -0.00028804 2442.34 169204 230165 
413 4.0156 4.0156 0 0.100045 0.100045 -0.000568978 1721.61 86975 122119 
453 2.322 2.322 0 0.0369141 0.0369141 0.00052105 991.589 44274.3 58986 
493 1.259 1.259 0 0.00932003 0.00932003 -0.000359753 544.483 26163.3 34725.1 
533 0.627 0.627 0 -0.00111498 -0.00111498 -0.000105387 263.994 10745.2 13035.9 
573 0.286 0.286 0 -0.00304071 -0.00304071 -2.24062e-05 118.152 5148.3 5798.44 
613 0.1516 0.1516 0 -0.0031242 -0.0031242 0.00016364 62.1227 2240.36 2876.01 
653 0.2472 0.2472 0 -0.00775532 -0.00775532 -0.000109081 99.9971 881.555 1379.8 
693 0.2614 0.2614 0 -0.00949193 -0.00949193 0.000235865 107.45 1956.93 2634.14 
733 0.274 0.274 0 -0.0109592 -0.0109592 -0.00011193 117.029 3110.96 4577.28 
773 0.2626 0.2626 0 -0.01023 -0.01023 5.96531e-06 109.355 2666.65 3879.15 
813 0.2568 0.2568 0 -0.00894156 -0.00894156 -0.000206369 102.797 759.525 663.386 
853 0.2266 0.2266 0 -0.00707402 -0.00707402 -3.44137e-05 92.0605 185.356 273.861 
893 0.157 0.157 0 -0.00278383 -0.00278383 -0.000134907 64.5808 1720.53 2054.73 
933 0.3316 0.3316 0 -0.00311456 -0.00311456 0.000168206 138.347 5138.76 6266.89 
973 0.7246 0.7246 0 -0.00102763 -0.00102763 9.39914e-05 305.479 11591.8 15703.3 
14 1.4398 1.4398 0 0.0127674 0.0127674 0.000144693 611.089 25653.6 36130.6 
54 2.65 2.65 0 0.0519037 0.0519037 -0.00047698 1143.06 67728.9 92102.7 
94 4.09 4.09 0 0.109708 0.109708 0.00047911 1768.97 103405 142506 
134 6.473 6.473 0 0.216712 0.216712 0.000870924 2825.26 175818 244440 
174 8.264 8.264 0 0.315104 0.315104 -0.000509536 3631.47 243205 343267 
214 9.7052 9.7052 0 0.396632 0.396632 0.000430645 4286.07 275628 395513 
254 9.8544 9.8544 0 0.41309 0.41309 0.00115131 4384.73 301460 441810 
294 9.1444 9.1444 0 0.376335 0.376335 0.000825353 4099.78 316870 451339 
334 7.8914 7.8914 0 0.293802 0.293802 -0.000645613 3459.98 235835 334038 
374 5.992 5.992 0 0.193181 0.193181 0.00111098 2615.15 163113 227410 
414 3.5784 3.5784 0 0.0899272 0.0899272 -2.89083e-05 1551.78 91168.3 122932 
454 2.1524 2.1524 0 0.0359783 0.0359783 -0.000213576 936.339 51051.9 70429.1 
494 1.2454 1.2454 0 0.00850788 0.00850788 -0.000395058 531.316 26502.2 35041.7 
534 0.5978 0.5978 0 -0.00158048 -0.00158048 0.000241632 248.828 10203.3 13582.1 
574 0.274 0.274 0 -0.00300977 -0.00300977 0.0001611 114.088 5112.45 5824.36 
614 0.1512 0.1512 0 -0.00315391 -0.00315391 -9.71914e-06 62.1792 2345.06 2592 
654 0.2428 0.2428 0 -0.00792973 -0.00792973 0.000188471 100.855 1378.68 1762.5 
694 0.2656 0.2656 0 -0.00944885 -0.00944885 -0.000205765 106.845 2058.05 2874.64 
734 0.252 0.252 0 -0.0102452 -0.0102452 -0.00014264 108.985 3522.16 5028.51 
774 0.2708 0.2708 0 -0.0105563 -0.0105563 -5.79026e-05 112.883 2279.02 4428.04 
814 0.2734 0.2734 0 -0.00990731 -0.00990731 -2.75111e-05 113.366 2154.55 2850.37 
854 0.2278 0.2278 0 -0.00706242 -0.00706242 -0.000117068 95.4533 1561.17 2053.2 
894 0.1592 0.1592 0 -0.00278531 -0.00278531 -1.5444e-05 65.5344 2083.85 2571.73 
934 0.324 0.324 0 -0.00296308 -0.00296308 -8.36833e-05 138.783 4999.44 6394.37 
974 0.7268 0.7268 0 -0.000535896 -0.000535896 -0.000157131 306.841 14241.1 18854 
15 1.4246 1.4246 0 0.0134207 0.0134207 -0.000449667 603.507 28173.4 36844.1 
55 2.5226 2.5226 0 0.048459 0.048459 -8.67991e-06 1092.41 63542 86509.8 
95 4.4112 4.4112 0 0.118333 0.118333 -0.000150544 1910.64 106428 146399 
135 5.943 5.943 0 0.20139 0.20139 -0.000998279 2614.79 181615 254659 
175 7.9122 7.9122 0 0.306418 0.306418 0.00035347 3523.3 255810 370985 
215 9.767 9.767 0 0.395721 0.395721 0.000492655 4274.72 255225 377754 
255 9.9388 9.9388 0 0.415767 0.415767 -0.0012837 4413.43 302232 439380 
295 9.4152 9.4152 0 0.3825 0.3825 0.00056476 4180.55 289473 419453 
335 7.734 7.734 0 0.289605 0.289605 -0.000319451 3421.39 232196 324929 
375 5.5488 5.5488 0 0.176836 0.176836 -0.00028601 2416.12 148164 205916 
415 3.8032 3.8032 0 0.0961653 0.0961653 0.000350749 1652.92 105850 146595 
455 2.3172 2.3172 0 0.0399499 0.0399499 0.000181 998.898 60624.1 80076 
495 1.2698 1.2698 0 0.00912408 0.00912408 0.000627027 547.667 28856.6 35931.3 
535 0.6124 0.6124 0 -0.00140061 -0.00140061 0.000190802 255.593 9498.39 12671.9 
575 0.2752 0.2752 0 -0.00329931 -0.00329931 -5.88948e-05 116.593 4236.43 5329.71 
615 0.1594 0.1594 0 -0.0034102 -0.0034102 9.44169e-05 66.02 2035.49 3033.15 
655 0.2574 0.2574 0 -0.00830189 -0.00830189 1.61712e-06 105.54 1251.8 1734.91 
695 0.2604 0.2604 0 -0.00953018 -0.00953018 0.000123768 107.203 1378.88 1673.99 
735 0.274 0.274 0 -0.0109142 -0.0109142 -0.000173182 116.299 3036.58 4550.98 
775 0.2646 0.2646 0 -0.0104213 -0.0104213 -0.000380694 111.806 2174.89 3166.76 
815 0.2538 0.2538 0 -0.00903198 -0.00903198 2.73874e-05 103.758 1236.84 1251.45 
855 0.2158 0.2158 0 -0.00679001 -0.00679001 8.70667e-05 89.8604 2113.49 2709.24 
895 0.1542 0.1542 0 -0.00256654 -0.00256654 -1.50385e-05 64.9301 2437.2 3119.16 
935 0.3494 0.3494 0 -0.00293817 -0.00293817 0.000217706 143.57 6058.47 7572.5 
975 0.7302 0.7302 0 -0.000178508 -0.000178508 -9.13922e-05 307.349 12077.1 14162 
16 1.4354 1.4354 0 0.0138102 0.0138102 0.000444571 610.262 28532.3 36102.1 
56 2.7236 2.7236 0 0.0494598 0.0494598 -0.000447431 1158.34 57013.7 77051 
96 4.2356 4.2356 0 0.118815 0.118815 0.00149589 1861.77 131718 183463 
136 6.5078 6.5078 0 0.218694 0.218694 0.00123221 2842.7 167216 232798 
176 8.5446 8.5446 0 0.324364 0.324364 0.00037916 3731.34 216738 315587 
216 9.713 9.713 0 0.391912 0.391912 0.000856585 4229.11 236900 340355 
256 9.8514 9.8514 0 0.410065 0.410065 0.000354807 4353.46 289912 414465 
296 9.3858 9.3858 0 0.373176 0.373176 0.000306185 4091.83 225976 329937 
336 7.8244 7.8244 0 0.284774 0.284774 0.000804832 3393.8 188123 268011 
376 5.7716 5.7716 0 0.186392 0.186392 0.000243343 2547.97 173407 243855 
416 3.874 3.874 0 0.0953943 0.0953943 -0.000770934 1667.36 91245.5 126438 
456 2.2974 2.2974 0 0.0396164 0.0396164 0.000185042 986.045 58556.8 75708.9 
496 1.2458 1.2458 0 0.00950129 0.00950129 0.000214587 526.907 27093.5 35144.5 
536 0.5874 0.5874 0 -0.00196454 -0.00196454 -2.53683e-05 252.671 10842.8 13712 