ITEM: TIMESTEP
25000
ITEM: NUMBER OF SURFS
1000
ITEM: BOX BOUNDS oo rr pp
0 0.3
0 0.3
-0.5 0.5
ITEM: SURFS id f_4[1] f_4[2] f_4[3] f_4[4] f_4[5] f_4[6] f_4[7] f_4[8] f_4[9] 
1 1.1186 1.1186 0 0.000448357 0.000448357 -6.39279e-06 10.5135 2666.12 3531.87 
41 1.9786 1.9786 0 0.00108899 0.00108899 5.16589e-06 19.4298 4610.71 6205.09 
81 3.1842 3.1842 0 0.00215204 0.00215204 1.05156e-05 32.096 6773.06 9367.84 
121 4.967 4.967 0 0.00393853 0.00393853 -4.11398e-06 50.4144 10034.1 14115.6 
161 6.6704 6.6704 0 0.00585406 0.00585406 -3.3592e-05 67.8189 13151.4 18748.3 
201 8.08 8.08 0 0.00757741 0.00757741 7.64232e-06 82.5147 15369.9 21974.5 
241 8.795 8.795 0 0.00849408 0.00849408 8.93164e-06 90.2074 16947.2 24243.4 
281 8.5284 8.5284 0 0.00812409 0.00812409 1.07858e-05 87.2042 16229 23201.4 
321 7.3236 7.3236 0 0.00665446 0.00665446 1.38754e-05 74.9232 14183.8 20126.9 
361 5.6934 5.6934 0 0.00475983 0.00475983 2.24611e-05 58.1157 11467.5 16184.6 
401 3.9298 3.9298 0 0.0028497 0.0028497 -1.33758e-05 39.7996 8178.79 11466.8 
441 2.5076 2.5076 0 0.00151044 0.00151044 1.81053e-05 24.9932 5481.84 7568.09 
481 1.3906 1.3906 0 0.000652956 0.000652956 3.4346e-06 13.4391 3304.12 4468.05 
521 0.7534 0.7534 0 0.00023396 0.00023396 9.02572e-06 6.94876 1842.5 2436.28 
561 0.3578 0.3578 0 5.02855e-05 5.02855e-05 3.01022e-07 3.13247 845.454 1120.03 
601 0.1662 0.1662 0 -1.09245e-05 -1.09245e-05 -4.38718e-06 1.28006 348.336 457.332 
641 0.0782 0.0782 0 -2.19666e-05 -2.19666e-05 5.65393e-08 0.60262 133.652 171.271 
681 0.048 0.048 0 -3.17167e-05 -3.17167e-05 -1.22459e-06 0.395598 61.1799 91.9962 
721 0.0532 0.0532 0 -4.06457e-05 -4.06457e-05 -8.6635e-07 0.440975 42.0426 88.7593 
761 0.058 0.058 0 -4.7975e-05 -4.7975e-05 6.93527e-07 0.510988 60.0101 109.775 
801 0.0486 0.0486 0 -3.52751e-05 -3.52751e-05 -1.08579e-06 0.415389 61.751 103.991 
841 0.059 0.059 0 -2.69146e-05 -2.69146e-05 5.43394e-07 0.450642 112.013 158.479 
881 0.1168 0.1168 0 -1.64281e-05 -1.64281e-05 -2.67839e-07 0.932178 254.168 351.33 
921 0.2458 0.2458 0 1.64627e-05 1.64627e-05 2.36044e-06 2.0342 610.068 806.826 
961 0.5564 0.5564 0 0.000134376 0.000134376 -2.95449e-06 4.96558 1329.56 1789.53 
2 1.1046 1.1046 0 0.000443601 0.000443601 -5.76353e-07 10.5734 2617.63 3458.4 
42 2.0026 2.0026 0 0.00110744 0.00110744 -1.61006e-05 19.7244 4528.65 6189.4 
82 3.291 3.291 0 0.00225663 0.00225663 2.63403e-06 33.3181 6993.02 9698.62 
122 4.939 4.939 0 0.00390258 0.00390258 -2.10621e-05 49.977 9810.95 13833.4 
162 6.7286 6.7286 0 0.00594246 0.00594246 -1.04947e-05 68.7208 13214.4 18735.6 
202 8.1044 8.1044 0 0.00761366 0.00761366 1.96275e-05 82.9188 15340.9 22139.6 
242 8.8048 8.8048 0 0.00852211 0.00852211 -1.18845e-05 90.4772 16569.7 23888.7 
282 8.5178 8.5178 0 0.00812323 0.00812323 1.12977e-05 87.2351 15947.7 22887.1 
322 7.3266 7.3266 0 0.00662578 0.00662578 -3.06918e-05 74.619 14027.3 20026.5 
362 5.5736 5.5736 0 0.00463619 0.00463619 -2.82413e-05 56.8038 11210.9 15770.4 
402 3.893 3.893 0 0.00283412 0.00283412 -1.50466e-05 39.4938 8208.09 11426.4 
442 2.4456 2.4456 0 0.00145532 0.00145532 1.98741e-05 24.1981 5281.62 7229.02 
482 1.3768 1.3768 0 0.00063032 0.00063032 1.67412e-05 13.1957 3252.2 4328.29 
522 0.7392 0.7392 0 0.000224841 0.000224841 -6.28131e-06 6.74948 1725.7 2268.7 
562 0.3618 0.3618 0 6.00207e-05 6.00207e-05 -6.18288e-06 3.12725 945.472 1238.7 
602 0.156 0.156 0 -3.79886e-06 -3.79886e-06 9.43619e-08 1.24158 376.761 498.172 
642 0.0696 0.0696 0 -2.17573e-05 -2.17573e-05 1.92608e-07 0.529081 128.191 178.407 
682 0.0552 0.0552 0 -3.48933e-05 -3.48933e-05 -3.79604e-06 0.441807 81.2334 118.639 
722 0.0564 0.0564 0 -4.68362e-05 -4.68362e-05 -1.24199e-06 0.508417 64.7169 106.961 
762 0.0638 0.0638 0 -5.17137e-05 -5.17137e-05 1.60207e-06 0.550287 75.2982 129.663 
802 0.0514 0.0514 0 -3.70581e-05 -3.70581e-05 -1.34235e-06 0.430344 66.5827 111.46 
842 0.0616 0.0616 0 -2.77224e-05 -2.77224e-05 2.0556e-06 0.48622 84.7046 128.278 
882 0.115 0.115 0 -1.227e-05 -1.227e-05 -2.32626e-06 0.872095 246.088 341.642 
922 0.2572 0.2572 0 2.17583e-05 2.17583e-05 3.28912e-06 2.12417 635.545 824.208 
962 0.5542 0.5542 0 0.000132752 0.000132752 -4.68029e-07 5.07582 1345.09 1779.1 
3 1.1194 1.1194 0 0.000468365 0.000468365 -7.42661e-09 10.6241 2753.14 3699.75 
43 2.0468 2.0468 0 0.0011376 0.0011376 -4.88065e-06 20.2271 4688.32 6289.15 
83 3.3172 3.3172 0 0.00226042 0.00226042 -7.89352e-06 33.2935 7122.25 9804.65 
123 4.9942 4.9942 0 0.00397064 0.00397064 1.09442e-05 50.7184 9986.24 14188.8 
163 6.744 6.744 0 0.00593779 0.00593779 1.93476e-05 68.5327 12868.4 18302.9 
203 8.2314 8.2314 0 0.00773305 0.00773305 -1.00396e-05 84.1386 15570.5 22175.9 
243 8.842 8.842 0 0.00855161 0.00855161 1.59861e-05 90.7889 16630.6 23895.7 
283 8.5194 8.5194 0 0.0081041 0.0081041 -2.43276e-06 87.0756 15765 22484.8 
323 7.2556 7.2556 0 0.00654916 0.00654916 -7.83957e-06 73.9234 13750.8 19713.9 
363 5.558 5.558 0 0.00459863 0.00459863 -3.71138e-05 56.7219 11061.3 15564.1 
403 3.8526 3.8526 0 0.00278673 0.00278673 -1.78169e-06 38.9371 8126.85 11264.8 
443 2.4326 2.4326 0 0.00144919 0.00144919 -1.37275e-05 24.2973 5413.81 7288.73 
483 1.3598 1.3598 0 0.000620252 0.000620252 3.87401e-06 13.0042 3132.23 4287.85 
523 0.7166 0.7166 0 0.000219445 0.000219445 5.82689e-06 6.59414 1774.28 2307.58 
563 0.336 0.336 0 4.96505e-05 4.96505e-05 -4.34379e-06 2.87879 804.112 1064.4 
603 0.148 0.148 0 -1.14285e-05 -1.14285e-05 1.87276e-06 1.18882 329.359 416.141 
643 0.0678 0.0678 0 -1.9574e-05 -1.9574e-05 -1.49989e-06 0.521376 141.687 198.017 
683 0.0508 0.0508 0 -2.98659e-05 -2.98659e-05 9.67459e-07 0.387723 70.2408 107.261 
723 0.0594 0.0594 0 -4.87625e-05 -4.87625e-05 1.96668e-06 0.52849 79.3082 135.578 
763 0.0552 0.0552 0 -4.62219e-05 -4.62219e-05 1.38377e-07 0.491144 57.633 91.4087 
803 0.0566 0.0566 0 -3.89242e-05 -3.89242e-05 -2.0295e-06 0.465164 81.6937 124.387 
843 0.0612 0.0612 0 -2.68455e-05 -2.68455e-05 -7.55646e-07 0.476474 88.2938 126.982 
883 0.1126 0.1126 0 -1.21001e-05 -1.21001e-05 2.08972e-06 0.857367 237.011 309.298 
923 0.2584 0.2584 0 2.09959e-05 2.09959e-05 1.57926e-06 2.16146 633.098 833.52 
963 0.5568 0.5568 0 0.000153435 0.000153435 -1.30747e-05 4.95652 1485.29 1908.46 
4 1.1794 1.1794 0 0.000489741 0.000489741 -8.46291e-06 11.1264 2769.04 3730.04 
44 2.0808 2.0808 0 0.0011351 0.0011351 2.0171e-05 20.4209 4570.21 6236.08 
84 3.3802 3.3802 0 0.00231672 0.00231672 7.9822e-07 33.8969 7218.57 9940.13 
124 5.0674 5.0674 0 0.00402817 0.00402817 1.13896e-05 51.4399 10169.8 14249.3 
164 6.7566 6.7566 0 0.00597959 0.00597959 4.61783e-06 68.9825 13193.6 18688.9 
204 8.1308 8.1308 0 0.00769644 0.00769644 -8.38944e-06 83.5934 15432.4 22026.3 
244 8.81 8.81 0 0.00853827 0.00853827 2.36777e-06 90.6251 16572.3 23806.9 
284 8.4592 8.4592 0 0.00802132 0.00802132 -1.64137e-05 86.2489 16046.6 23017.5 
324 7.265 7.265 0 0.00653858 0.00653858 8.26751e-06 73.9186 13931.3 19950.1 
364 5.537 5.537 0 0.00458096 0.00458096 -3.27409e-06 56.5397 11184.3 15750.8 
404 3.8074 3.8074 0 0.00273444 0.00273444 7.51397e-06 38.5017 8120.91 11266.9 
444 2.3794 2.3794 0 0.0013887 0.0013887 -1.45135e-05 23.5185 5150.67 7005.53 
484 1.3486 1.3486 0 0.0006029 0.0006029 -1.41422e-06 12.9349 3222.71 4260.27 
524 0.7096 0.7096 0 0.000205383 0.000205383 -3.66137e-06 6.54573 1801.23 2399.84 
564 0.3388 0.3388 0 4.46255e-05 4.46255e-05 3.32038e-06 2.92143 803.06 1075.27 
604 0.1516 0.1516 0 -9.81288e-06 -9.81288e-06 1.52774e-06 1.21645 355.589 475.885 
644 0.066 0.066 0 -2.19384e-05 -2.19384e-05 4.55276e-07 0.509989 127.428 192.49 
684 0.0522 0.0522 0 -3.37025e-05 -3.37025e-05 -3.3798e-07 0.423836 56.0706 106.925 
724 0.0598 0.0598 0 -4.92379e-05 -4.92379e-05 1.28562e-06 0.530624 64.697 115.949 
764 0.0576 0.0576 0 -4.55679e-05 -4.55679e-05 -4.35121e-06 0.486951 72.3963 110.052 
804 0.0486 0.0486 0 -3.51772e-05 -3.51772e-05 -6.17577e-07 0.409925 58.8932 93.5197 
844 0.064 0.064 0 -2.6451e-05 -2.6451e-05 -1.10819e-06 0.510164 110.01 144.971 
884 0.1192 0.1192 0 -1.29407e-05 -1.29407e-05 -1.66128e-06 0.942001 259.559 343.757 
924 0.2786 0.2786 0 2.03748e-05 2.03748e-05 4.71192e-06 2.37456 667.577 929.816 
964 0.557 0.557 0 0.000141873 0.000141873 -4.79901e-07 5.032 1389.18 1801.78 
5 1.1488 1.1488 0 0.000472275 0.000472275 8.12231e-06 10.9638 2684.03 3614.6 
45 2.1038 2.1038 0 0.00118108 0.00118108 2.06334e-05 20.7654 4782.18 6510.74 
85 3.417 3.417 0 0.00234895 0.00234895 1.30201e-07 34.404 7390.69 10276.1 
125 5.1162 5.1162 0 0.004065 0.004065 1.50029e-05 51.8107 10297.9 14465.6 
165 6.851 6.851 0 0.00609603 0.00609603 6.30548e-06 70.1201 13332.7 19133.2 
205 8.1718 8.1718 0 0.00768716 0.00768716 3.97358e-06 83.3616 15530.3 22331.9 
245 8.7692 8.7692 0 0.00844151 0.00844151 1.98159e-05 89.5795 16302.2 23492.7 
285 8.4062 8.4062 0 0.00798179 0.00798179 3.52395e-05 85.9518 15716.1 22615.1 
325 7.1698 7.1698 0 0.00647517 0.00647517 -1.0715e-05 73.3397 13797 19650.1 
365 5.5294 5.5294 0 0.00452836 0.00452836 6.72547e-06 56.2192 11153.1 15724 
405 3.7358 3.7358 0 0.00264443 0.00264443 1.48186e-06 37.6886 7777.11 10844.9 
445 2.3722 2.3722 0 0.00139422 0.00139422 3.31259e-05 23.4699 5109.01 7054.64 
485 1.3626 1.3626 0 0.000600223 0.000600223 -6.89659e-07 13.1229 3187.58 4211.45 
525 0.6762 0.6762 0 0.000198408 0.000198408 -2.13802e-06 6.13995 1622.01 2104.82 
565 0.3276 0.3276 0 4.82989e-05 4.82989e-05 1.17839e-06 2.79786 857.025 1105.01 
605 0.1476 0.1476 0 -8.93726e-06 -8.93726e-06 -1.81698e-06 1.1991 334.888 458.689 
645 0.0712 0.0712 0 -2.78794e-05 -2.78794e-05 1.22922e-07 0.574866 121.428 185.046 
685 0.0508 0.0508 0 -3.60654e-05 -3.60654e-05 2.70013e-06 0.430877 76.639 116.249 
725 0.0554 0.0554 0 -4.28036e-05 -4.28036e-05 -3.39315e-07 0.460717 50.6845 84.9896 
765 0.0582 0.0582 0 -4.79599e-05 -4.79599e-05 8.66358e-08 0.51314 57.7057 102.467 
805 0.0482 0.0482 0 -3.43217e-05 -3.43217e-05 -1.87302e-06 0.3975 65.9729 103.952 
845 0.0596 0.0596 0 -2.39388e-05 -2.39388e-05 -9.94555e-07 0.457267 106.191 160.284 
885 0.1168 0.1168 0 -1.63663e-05 -1.63663e-05 1.35439e-06 0.936951 253.436 343.767 
925 0.2644 0.2644 0 2.52943e-05 2.52943e-05 7.84444e-07 2.24917 664.633 873.729 
965 0.576 0.576 0 0.000152327 0.000152327 -3.3576e-06 5.21798 1401.94 1877.08 
6 1.1982 1.1982 0 0.000508721 0.000508721 -2.83198e-06 11.3921 2915.64 3969.97 
46 2.086 2.086 0 0.00116857 0.00116857 5.60733e-06 20.5921 4630.92 6263.13 
86 3.4472 3.4472 0 0.00238608 0.00238608 2.80554e-05 34.7243 7240.15 10091 
126 5.1602 5.1602 0 0.0041276 0.0041276 -3.1207e-06 52.4039 10365 14448.5 
166 6.8328 6.8328 0 0.00606765 0.00606765 -1.36563e-05 69.7052 13303.7 18927 
206 8.2874 8.2874 0 0.00779353 0.00779353 6.6847e-06 84.5111 15767.2 22592.3 
246 8.8784 8.8784 0 0.00856251 0.00856251 2.00503e-05 90.8621 16587.3 23942 
286 8.4342 8.4342 0 0.00798531 0.00798531 -7.09923e-07 85.9843 15706.4 22595 
326 7.1662 7.1662 0 0.00646556 0.00646556 -1.19629e-05 73.1909 13820.3 19729.8 
366 5.454 5.454 0 0.00444102 0.00444102 -9.22562e-06 55.3383 10892.2 15365.7 
406 3.7102 3.7102 0 0.00265614 0.00265614 1.19709e-05 37.4142 7942.94 11030.3 
446 2.2928 2.2928 0 0.00134375 0.00134375 -8.01441e-06 22.7379 5117.52 7025.67 
486 1.2968 1.2968 0 0.00056938 0.00056938 -2.8503e-06 12.3656 3070.83 4134.34 
526 0.6776 0.6776 0 0.000199272 0.000199272 4.15633e-06 6.17786 1666.65 2161.98 
566 0.3192 0.3192 0 4.16284e-05 4.16284e-05 2.96361e-07 2.70511 781.899 1024.21 
606 0.1464 0.1464 0 -1.34047e-05 -1.34047e-05 -3.13321e-06 1.16801 327.968 445.893 
646 0.071 0.071 0 -2.50603e-05 -2.50603e-05 1.47949e-06 0.55846 131.662 179.453 
686 0.0502 0.0502 0 -3.21346e-05 -3.21346e-05 -1.08219e-06 0.40952 68.3047 107.924 
726 0.0576 0.0576 0 -4.62238e-05 -4.62238e-05 -4.99102e-07 0.497856 64.0503 102.489 
766 0.0618 0.0618 0 -4.79348e-05 -4.79348e-05 2.51141e-06 0.510931 67.5815 107.825 
806 0.0508 0.0508 0 -3.38491e-05 -3.38491e-05 2.17355e-07 0.414664 52.9352 85.6355 
846 0.0578 0.0578 0 -2.46341e-05 -2.46341e-05 -2.25228e-07 0.446119 81.031 116.883 
886 0.121 0.121 0 -1.60442e-05 -1.60442e-05 2.32469e-06 0.976182 273.151 393.685 
926 0.273 0.273 0 2.61206e-05 2.61206e-05 -1.71327e-06 2.24474 603.083 811.368 
966 0.6066 0.6066 0 0.000161686 0.000161686 2.6335e-06 5.54793 1461.89 1894.07 
7 1.2198 1.2198 0 0.000503157 0.000503157 1.23021e-05 11.6435 2812.62 3805.28 
47 2.1268 2.1268 0 0.00121813 0.00121813 3.23945e-06 21.007 4696.81 6380.35 
87 3.4998 3.4998 0 0.00243933 0.00243933 -1.45446e-05 35.3257 7546.33 10461.9 
127 5.1902 5.1902 0 0.00418738 0.00418738 -2.99774e-05 52.6333 10555.9 14689.9 
167 6.9198 6.9198 0 0.00615645 0.00615645 -7.83368e-06 70.6427 13516.3 19155.2 
207 8.2276 8.2276 0 0.00771271 0.00771271 7.67675e-06 83.4998 15115.8 21799 
247 8.8632 8.8632 0 0.00854716 0.00854716 -3.20664e-06 90.6953 16516.2 23796.8 
287 8.4512 8.4512 0 0.00799685 0.00799685 -2.12824e-05 86.183 15800.3 22864.9 
327 7.0956 7.0956 0 0.00634043 0.00634043 3.76504e-05 72.2159 13365.5 19016.1 
367 5.4634 5.4634 0 0.00445204 0.00445204 3.55264e-06 55.4115 10808.6 15171.3 
407 3.6558 3.6558 0 0.00260297 0.00260297 8.66299e-07 36.7281 7558.58 10501.3 
447 2.276 2.276 0 0.00132067 0.00132067 -5.22125e-06 22.6167 5088.58 6894.43 
487 1.2966 1.2966 0 0.000566112 0.000566112 1.86211e-05 12.4397 3124.13 4123.49 
527 0.6776 0.6776 0 0.000188909 0.000188909 8.01246e-06 6.21918 1618.47 2142.13 
567 0.3176 0.3176 0 3.66478e-05 3.66478e-05 -2.4803e-06 2.6805 738.197 997.03 
607 0.1466 0.1466 0 -1.10271e-05 -1.10271e-05 2.05758e-06 1.15003 333.468 435.472 
647 0.0666 0.0666 0 -2.42969e-05 -2.42969e-05 1.26016e-06 0.505898 123.132 172.235 
687 0.05 0.05 0 -3.26159e-05 -3.26159e-05 -1.5822e-06 0.406748 60.4417 114.073 
727 0.0566 0.0566 0 -4.4864e-05 -4.4864e-05 1.96381e-06 0.485114 70.2216 132.64 
767 0.0566 0.0566 0 -4.37798e-05 -4.37798e-05 4.55871e-07 0.472625 62.1015 106.879 
807 0.0546 0.0546 0 -3.89378e-05 -3.89378e-05 2.65083e-07 0.453424 71.196 113.663 
847 0.0794 0.0794 0 -2.92812e-05 -2.92812e-05 -4.42392e-06 0.600664 145.49 207.135 
887 0.1148 0.1148 0 -1.7326e-05 -1.7326e-05 -1.29549e-06 0.927947 224.942 312.637 
927 0.2782 0.2782 0 3.18094e-05 3.18094e-05 1.81619e-06 2.32855 679.763 889.612 
967 0.6112 0.6112 0 0.000153187 0.000153187 9.35257e-06 5.49663 1372.75 1849.06 
8 1.2018 1.2018 0 0.000510282 0.000510282 -1.0774e-06 11.2245 2740.61 3703.59 
48 2.1456 2.1456 0 0.00121311 0.00121311 5.07892e-06 21.1168 4824.04 6591.59 
88 3.5214 3.5214 0 0.00247163 0.00247163 5.43417e-06 35.6326 7510.77 10295.9 
128 5.2244 5.2244 0 0.00421702 0.00421702 1.87074e-05 52.9547 10360.8 14688.9 
168 6.952 6.952 0 0.00620556 0.00620556 2.38119e-05 70.8697 13647.9 19469.5 
208 8.3344 8.3344 0 0.00786302 0.00786302 -1.73237e-05 84.9707 15579.4 22322.6 
248 8.7832 8.7832 0 0.00848099 0.00848099 6.01037e-06 89.9912 16514.5 23654 
288 8.3846 8.3846 0 0.00794512 0.00794512 1.30211e-05 85.7563 16009.3 22904.8 
328 7.0854 7.0854 0 0.00637623 0.00637623 -1.35155e-05 72.5922 13738.3 19533.9 
368 5.3314 5.3314 0 0.00431003 0.00431003 -4.3373e-05 53.8141 10635.6 15021.1 
408 3.6368 3.6368 0 0.00257971 0.00257971 2.75913e-06 36.6197 7758.84 10755.5 
448 2.2298 2.2298 0 0.00129001 0.00129001 -1.87904e-05 22.0637 5087.87 6876.87 
488 1.2906 1.2906 0 0.000558364 0.000558364 5.51913e-06 12.3659 3017.96 4069.65 
528 0.6582 0.6582 0 0.00018967 0.00018967 5.15262e-06 5.93865 1560.59 2063.69 
568 0.3204 0.3204 0 2.75502e-05 2.75502e-05 1.27402e-05 2.71382 756.189 985.71 
608 0.1374 0.1374 0 -9.60688e-06 -9.60688e-06 -1.80535e-06 1.07606 319.796 431.137 
648 0.066 0.066 0 -2.4178e-05 -2.4178e-05 6.45546e-08 0.51891 102.243 161.116 
688 0.0532 0.0532 0 -3.50027e-05 -3.50027e-05 1.76837e-06 0.432374 78.3118 122.29 
728 0.055 0.055 0 -4.19593e-05 -4.19593e-05 1.32761e-06 0.449884 54.9099 112.153 
768 0.0642 0.0642 0 -5.12422e-05 -5.12422e-05 3.0833e-07 0.54922 73.028 117.872 
808 0.046 0.046 0 -3.16325e-05 -3.16325e-05 9.00497e-07 0.38087 62.9588 107.833 
848 0.0622 0.0622 0 -2.39869e-05 -2.39869e-05 -1.88244e-06 0.471337 114.303 165.997 
888 0.1238 0.1238 0 -8.59669e-06 -8.59669e-06 -1.39582e-06 0.987822 307.538 391.505 
928 0.2936 0.2936 0 3.01456e-05 3.01456e-05 -6.2164e-06 2.46877 711.902 927.236 
968 0.628 0.628 0 0.000170444 0.000170444 9.33902e-06 5.73816 1534.17 2039.35 
9 1.2398 1.2398 0 0.000527923 0.000527923 -3.2559e-06 11.8493 2909.18 3918.17 
49 2.2286 2.2286 0 0.00126791 0.00126791 -8.24387e-06 22.0228 5045.13 6863.71 
89 3.5408 3.5408 0 0.00250579 0.00250579 -1.74817e-05 35.6123 7611.46 10545.3 
129 5.2318 5.2318 0 0.00423814 0.00423814 8.85639e-06 53.297 10454 14680.3 
169 7.0306 7.0306 0 0.00625889 0.00625889 2.92661e-06 71.6165 13770.3 19552 
209 8.4436 8.4436 0 0.00794864 0.00794864 -3.84595e-06 85.8721 15764.4 22593.1 
249 8.7754 8.7754 0 0.00849342 0.00849342 1.09453e-05 90.1187 16891.1 24094.4 
289 8.351 8.351 0 0.00793385 0.00793385 -7.26824e-06 85.675 16043.2 22960.6 
329 7.0476 7.0476 0 0.00629565 0.00629565 -7.00264e-06 71.8698 13873.9 19801 
369 5.3292 5.3292 0 0.00432854 0.00432854 3.36384e-06 54.1377 10433.5 14683.2 
409 3.6054 3.6054 0 0.0025262 0.0025262 -7.19773e-06 36.2341 7716.37 10655.9 
449 2.2458 2.2458 0 0.00129003 0.00129003 -3.94876e-06 22.1572 4963.54 6828.7 
489 1.2566 1.2566 0 0.000550719 0.000550719 -2.02941e-06 12.0257 2922.51 3906.51 
529 0.6608 0.6608 0 0.000184513 0.000184513 -1.73218e-06 6.01222 1694.78 2220.62 
569 0.3178 0.3178 0 3.73393e-05 3.73393e-05 3.30561e-06 2.76756 764.856 1003.18 
609 0.1308 0.1308 0 -9.93361e-06 -9.93361e-06 -5.76349e-07 1.05927 304.654 401.265 
649 0.062 0.062 0 -2.2479e-05 -2.2479e-05 1.65664e-06 0.476891 96.9872 140.676 
689 0.053 0.053 0 -3.66195e-05 -3.66195e-05 1.11749e-06 0.438248 66.0122 116.295 
729 0.0506 0.0506 0 -4.16668e-05 -4.16668e-05 -2.26534e-06 0.446781 69.5354 112.936 
769 0.059 0.059 0 -4.73765e-05 -4.73765e-05 5.77203e-07 0.509402 68.5775 118.667 
809 0.0542 0.0542 0 -3.47315e-05 -3.47315e-05 6.69328e-07 0.428681 68.791 114.734 
849 0.062 0.062 0 -2.20265e-05 -2.20265e-05 -2.37608e-06 0.45669 97.8619 128.926 
889 0.1314 0.1314 0 -9.42336e-06 -9.42336e-06 -3.97951e-06 1.04931 315.457 420.652 
929 0.3032 0.3032 0 4.02281e-05 4.02281e-05 -5.74944e-06 2.57023 802.081 1015.64 
969 0.6518 0.6518 0 0.00018012 0.00018012 -6.68032e-06 5.88288 1562.25 2076.18 
10 1.2642 1.2642 0 0.000540399 0.000540399 3.12696e-06 12.1646 2892.3 3882.27 
50 2.2468 2.2468 0 0.00128968 0.00128968 1.4101e-05 22.1442 5020.3 6865.54 
90 3.6318 3.6318 0 0.00252933 0.00252933 -6.38322e-07 36.5886 7489.69 10441.1 
130 5.341 5.341 0 0.00432689 0.00432689 -1.04222e-05 54.1165 10458.4 14781.5 
170 7.0856 7.0856 0 0.00635213 0.00635213 3.37255e-05 72.4558 13806.3 19556 
210 8.363 8.363 0 0.00793836 0.00793836 3.79464e-05 85.7369 15947.1 22820.7 
250 8.759 8.759 0 0.00846857 0.00846857 1.519e-05 89.8552 16485.7 23735.3 
290 8.3116 8.3116 0 0.00784816 0.00784816 -5.09971e-05 84.8373 15676.6 22539.3 
330 6.9666 6.9666 0 0.00623993 0.00623993 3.11725e-06 71.268 13502.6 19377.1 
370 5.2158 5.2158 0 0.00421895 0.00421895 9.57123e-07 52.9366 10505.9 14683 
410 3.5376 3.5376 0 0.00248579 0.00248579 -5.45387e-06 35.6044 7579.25 10455.3 
450 2.2246 2.2246 0 0.00128386 0.00128386 -5.75594e-08 22.0498 5054.67 6928.45 
490 1.2236 1.2236 0 0.000524988 0.000524988 -3.67556e-06 11.6745 2874.31 3831.57 
530 0.635 0.635 0 0.000179755 0.000179755 7.36283e-06 5.76856 1577.92 2107.02 
570 0.2946 0.2946 0 3.64456e-05 3.64456e-05 -2.31856e-06 2.43782 715.834 958.375 
610 0.1278 0.1278 0 -1.04401e-05 -1.04401e-05 1.66934e-06 0.996613 298.908 392.665 
650 0.0712 0.0712 0 -2.4713e-05 -2.4713e-05 -6.66126e-07 0.55434 137.967 181.919 
690 0.0488 0.0488 0 -3.66278e-05 -3.66278e-05 1.20039e-06 0.431685 49.4981 93.3294 
730 0.0586 0.0586 0 -4.74455e-05 -4.74455e-05 1.55989e-06 0.508531 56.2621 99.6888 
770 0.0602 0.0602 0 -4.91176e-05 -4.91176e-05 3.11062e-07 0.528264 69.6194 112.572 
810 0.0498 0.0498 0 -3.50193e-05 -3.50193e-05 -1.65584e-06 0.412624 48.2156 101.533 
850 0.0594 0.0594 0 -1.91197e-05 -1.91197e-05 4.00016e-07 0.427718 119.681 164.395 
890 0.1358 0.1358 0 -1.38889e-05 -1.38889e-05 -2.21901e-06 1.09668 289.711 391.176 
930 0.2996 0.2996 0 3.06032e-05 3.06032e-05 -7.84433e-06 2.60299 737.698 967.058 
970 0.6474 0.6474 0 0.000170872 0.000170872 1.7573e-06 5.94647 1617.3 2081.62 
11 1.2952 1.2952 0 0.000573146 0.000573146 -1.17639e-05 12.4204 3088.2 4131.51 
51 2.2446 2.2446 0 0.00128097 0.00128097 -1.13983e-05 22.079 4899.13 6718.28 
91 3.6384 3.6384 0 0.00257282 0.00257282 7.04773e-06 36.7666 7729.45 10707.7 
131 5.4 5.4 0 0.00438587 0.00438587 1.55326e-05 54.7786 10859.9 15109.5 
171 7.0676 7.0676 0 0.00635781 0.00635781 -2.05111e-05 72.2662 13566.5 19289.1 
211 8.3246 8.3246 0 0.00792932 0.00792932 2.12903e-05 85.4823 16016.5 22836.8 
251 8.7734 8.7734 0 0.00850965 0.00850965 3.69524e-05 90.2911 16611.8 23768.4 
291 8.3946 8.3946 0 0.00792236 0.00792236 -7.65544e-06 85.8393 15762.1 22649.8 
331 6.935 6.935 0 0.00617604 0.00617604 9.08768e-06 70.6209 13702.1 19340.9 
371 5.245 5.245 0 0.00425259 0.00425259 -2.20461e-05 53.2558 10350.7 14584.5 
411 3.5158 3.5158 0 0.00246874 0.00246874 -1.92299e-05 35.4885 7530.57 10487.3 
451 2.231 2.231 0 0.00127982 0.00127982 6.89886e-07 22.1477 5071.38 6903.01 
491 1.2568 1.2568 0 0.000532569 0.000532569 -9.9361e-06 11.8914 2990.63 4027.59 
531 0.6426 0.6426 0 0.000169509 0.000169509 6.75302e-06 5.84823 1606 2100.41 
571 0.2886 0.2886 0 2.8783e-05 2.8783e-05 -4.17444e-06 2.41634 668.027 870.843 
611 0.1198 0.1198 0 -1.17173e-05 -1.17173e-05 1.97237e-07 0.9323 283.382 373.417 
651 0.0592 0.0592 0 -2.47544e-05 -2.47544e-05 -1.40098e-06 0.455402 98.3313 133.775 
691 0.0502 0.0502 0 -3.55119e-05 -3.55119e-05 1.4914e-06 0.418711 48.257 93.0682 
731 0.0486 0.0486 0 -3.94948e-05 -3.94948e-05 -2.2552e-06 0.422477 67.8592 104.802 
771 0.0584 0.0584 0 -4.89915e-05 -4.89915e-05 4.11904e-06 0.523744 53.1277 116.293 
811 0.051 0.051 0 -3.78325e-05 -3.78325e-05 5.34669e-07 0.442824 75.4019 129.542 
851 0.067 0.067 0 -2.31048e-05 -2.31048e-05 -2.73057e-06 0.523586 122.772 172.838 
891 0.1384 0.1384 0 -6.6343e-06 -6.6343e-06 1.39034e-06 1.06359 290.912 403.05 
931 0.3102 0.3102 0 3.8396e-05 3.8396e-05 -1.49928e-06 2.63821 792.131 1003.28 
971 0.6636 0.6636 0 0.000180106 0.000180106 -1.23851e-06 6.03834 1573.21 2106.32 
12 1.3034 1.3034 0 0.000574428 0.000574428 1.04541e-05 12.4651 3068.77 4107.75 
52 2.3074 2.3074 0 0.00132256 0.00132256 3.17927e-06 22.7795 5019.1 6901.5 
92 3.65 3.65 0 0.00257915 0.00257915 -5.08708e-06 36.646 7628.59 10591.4 
132 5.4086 5.4086 0 0.00438994 0.00438994 -1.32275e-05 54.8447 10639.5 14994.1 
172 7.1322 7.1322 0 0.00643474 0.00643474 -1.61215e-05 73.0991 13618.4 19411.8 
212 8.3948 8.3948 0 0.00795768 0.00795768 -2.22612e-06 85.7327 15831.8 22811.2 
252 8.9014 8.9014 0 0.00860205 0.00860205 -1.26731e-05 91.2843 16842.9 24223.1 
292 8.2554 8.2554 0 0.00779221 0.00779221 2.5499e-05 84.3463 15691.7 22501.7 
332 6.9234 6.9234 0 0.00619232 0.00619232 -2.33849e-06 71.0095 13323.6 18785.7 
372 5.1774 5.1774 0 0.00416174 0.00416174 2.50546e-06 52.6283 10566 14854.2 
412 3.5004 3.5004 0 0.00243321 0.00243321 -1.81148e-05 35.1091 7352.79 10163 
452 2.1314 2.1314 0 0.00121322 0.00121322 2.17585e-05 20.929 4821.1 6637.82 
492 1.2102 1.2102 0 0.000498578 0.000498578 -1.05515e-05 11.5061 2865.76 3886.36 
532 0.6098 0.6098 0 0.000163009 0.000163009 -2.47804e-06 5.51755 1495.19 2026.33 
572 0.2928 0.2928 0 3.1533e-05 3.1533e-05 -6.38477e-06 2.51265 726.214 958.017 
612 0.1166 0.1166 0 -1.08942e-05 -1.08942e-05 1.0194e-06 0.902722 244.916 320.229 
652 0.071 0.071 0 -3.20126e-05 -3.20126e-05 2.63549e-07 0.58284 122.885 165.137 
692 0.0492 0.0492 0 -3.37235e-05 -3.37235e-05 -5.8861e-07 0.403289 63.5832 107.664 
732 0.056 0.056 0 -4.67135e-05 -4.67135e-05 3.81984e-08 0.497013 59.3313 103.495 
772 0.0532 0.0532 0 -4.1783e-05 -4.1783e-05 2.08097e-06 0.45171 48.5278 92.3928 
812 0.044 0.044 0 -2.69513e-05 -2.69513e-05 -3.19045e-07 0.343294 60.9522 96.2948 
852 0.0678 0.0678 0 -2.69615e-05 -2.69615e-05 -7.6454e-07 0.530573 117.597 173.99 
892 0.142 0.142 0 -1.06929e-05 -1.06929e-05 3.14313e-06 1.10307 304.284 414.357 
932 0.3208 0.3208 0 3.27331e-05 3.27331e-05 -4.91675e-06 2.74792 749.962 1010.38 
972 0.6788 0.6788 0 0.000189873 0.000189873 -2.84935e-06 6.1844 1663.68 2207.27 
13 1.3458 1.3458 0 0.000592958 0.000592958 3.31849e-07 12.9448 3149.72 4241.44 
53 2.3392 2.3392 0 0.00134877 0.00134877 4.29686e-06 23.0688 5040.55 6895.83 
93 3.772 3.772 0 0.00269298 0.00269298 4.08184e-06 38.0125 8088.23 11081.5 
133 5.4838 5.4838 0 0.00449993 0.00449993 1.87858e-05 55.8912 11172.4 15760.3 
173 7.191 7.191 0 0.00647388 0.00647388 -5.87652e-06 73.451 13993.7 19803.6 
213 8.3922 8.3922 0 0.00796567 0.00796567 2.19196e-05 85.7581 15844.7 22712.2 
253 8.8424 8.8424 0 0.00852179 0.00852179 1.44434e-06 90.4356 16623.1 23831.3 
293 8.2068 8.2068 0 0.00775714 0.00775714 -2.56058e-05 84.0349 15673.5 22307.3 
333 6.857 6.857 0 0.0060709 0.0060709 1.17635e-06 69.8166 13263.5 18890.9 
373 5.1334 5.1334 0 0.00412516 0.00412516 -6.14435e-07 52.1525 10310.9 14692.4 
413 3.4178 3.4178 0 0.00235615 0.00235615 -3.0403e-05 34.4871 7258.83 10083.8 
453 2.131 2.131 0 0.00118733 0.00118733 1.52357e-06 21.0602 4759.64 6420.54 
493 1.1822 1.1822 0 0.000501906 0.000501906 5.94075e-06 11.299 2901.69 3845.12 
533 0.613 0.613 0 0.000156908 0.000156908 4.21284e-06 5.61064 1510.62 1972.67 
573 0.2902 0.2902 0 2.46194e-05 2.46194e-05 -1.29949e-06 2.41611 709.29 935.348 
613 0.1208 0.1208 0 -1.20171e-05 -1.20171e-05 1.94984e-06 0.954796 296.744 385.995 
653 0.0592 0.0592 0 -2.35684e-05 -2.35684e-05 1.54196e-06 0.453325 103.723 151.205 
693 0.0516 0.0516 0 -3.52214e-05 -3.52214e-05 3.73463e-06 0.430136 80.1808 141.849 
733 0.0538 0.0538 0 -4.40053e-05 -4.40053e-05 2.38784e-06 0.469833 68.92 114.855 
773 0.0514 0.0514 0 -4.08233e-05 -4.08233e-05 -1.88099e-06 0.440786 73.8417 120.415 
813 0.0592 0.0592 0 -4.0181e-05 -4.0181e-05 1.0314e-06 0.491669 59.4165 89.433 
853 0.0702 0.0702 0 -2.47006e-05 -2.47006e-05 6.39899e-07 0.547382 125.065 178.751 
893 0.1392 0.1392 0 -8.46817e-06 -8.46817e-06 -1.54027e-06 1.07289 315.4 415.889 
933 0.3138 0.3138 0 4.38227e-05 4.38227e-05 -6.99493e-06 2.65392 773.276 1009.5 
973 0.6504 0.6504 0 0.000187163 0.000187163 -4.83267e-06 5.90905 1537.75 2039.42 
14 1.3358 1.3358 0 0.000588249 0.000588249 1.04418e-05 12.8565 3056.19 4125.15 
54 2.3976 2.3976 0 0.00139643 0.00139643 -3.06076e-06 23.5803 5395.15 7235.33 
94 3.7744 3.7744 0 0.00270252 0.00270252 8.34192e-06 38.2145 7925.8 11008.4 
134 5.4956 5.4956 0 0.00449744 0.00449744 -1.32082e-05 55.7037 10818.5 15231.1 
174 7.209 7.209 0 0.00649943 0.00649943 -2.48948e-05 73.5112 13940.8 19835 
214 8.455 8.455 0 0.00804519 0.00804519 -7.93745e-06 86.6844 16057.1 23020.5 
254 8.8204 8.8204 0 0.00851075 0.00851075 3.28681e-06 90.3245 16585.9 23620.4 
294 8.1268 8.1268 0 0.00764577 0.00764577 3.7095e-05 82.9801 15619.9 22231.5 
334 6.7744 6.7744 0 0.00600851 0.00600851 -2.61525e-06 69.2448 13255.7 18770.5 
374 5.1028 5.1028 0 0.0040744 0.0040744 3.83351e-05 51.8063 10291.8 14467.4 
414 3.4266 3.4266 0 0.00236896 0.00236896 3.99559e-06 34.5698 7345.99 10169.4 
454 2.0804 2.0804 0 0.00116914 0.00116914 5.40761e-07 20.5771 4573.97 6327.91 
494 1.1606 1.1606 0 0.000473793 0.000473793 -1.6455e-05 11.0699 2691.31 3622.97 
534 0.5978 0.5978 0 0.000158061 0.000158061 -2.06305e-06 5.45915 1493.53 1983.99 
574 0.2742 0.2742 0 2.48835e-05 2.48835e-05 -4.58211e-06 2.29187 636.362 801.99 
614 0.1214 0.1214 0 -1.46454e-05 -1.46454e-05 2.01102e-06 0.936676 251.573 340.474 
654 0.069 0.069 0 -2.93211e-05 -2.93211e-05 9.69234e-07 0.538668 107.977 153.148 
694 0.0522 0.0522 0 -3.78778e-05 -3.78778e-05 -1.43288e-06 0.43689 70.4861 105.648 
734 0.0624 0.0624 0 -5.31326e-05 -5.31326e-05 3.84085e-08 0.565836 69.7017 125.647 
774 0.0548 0.0548 0 -4.25209e-05 -4.25209e-05 1.56002e-07 0.458248 71.0741 112.032 
814 0.0556 0.0556 0 -3.54051e-05 -3.54051e-05 8.93453e-07 0.455302 69.827 110.525 
854 0.068 0.068 0 -2.3242e-05 -2.3242e-05 -5.99377e-07 0.502522 107.901 170.741 
894 0.1446 0.1446 0 -1.15798e-05 -1.15798e-05 6.07963e-07 1.13628 323.084 439.171 
934 0.3342 0.3342 0 4.46114e-05 4.46114e-05 -2.87681e-07 2.86238 792.696 1044.93 
974 0.7122 0.7122 0 0.000210051 0.000210051 3.93277e-06 6.49284 1718.21 2279.31 
15 1.3748 1.3748 0 0.0006211 0.0006211 -1.05405e-06 13.2841 3120.87 4181.78 
55 2.3966 2.3966 0 0.00140933 0.00140933 1.42236e-05 23.7054 5203.79 7121.39 
95 3.7956 3.7956 0 0.00272103 0.00272103 2.13081e-05 38.1677 7933.95 11047.7 
135 5.5002 5.5002 0 0.00450408 0.00450408 -2.24839e-05 55.7658 10867.8 15293.1 
175 7.2082 7.2082 0 0.00650083 0.00650083 8.05582e-06 73.4897 13730.6 19618.1 
215 8.4886 8.4886 0 0.0080452 0.0080452 -9.54418e-06 86.5458 16027.1 22975 
255 8.8042 8.8042 0 0.00852526 0.00852526 -2.53486e-07 90.4844 16708 23969.1 
295 8.228 8.228 0 0.00776033 0.00776033 5.35612e-07 84.2469 15846.4 22513.3 
335 6.7808 6.7808 0 0.00599677 0.00599677 -1.55305e-05 69.1019 13100.5 18629.6 
375 4.9964 4.9964 0 0.00398046 0.00398046 -7.90344e-06 50.9181 10119.7 14177.6 
415 3.4038 3.4038 0 0.00232536 0.00232536 -1.54034e-05 34.1722 7255.22 10060.2 
455 2.0788 2.0788 0 0.00113914 0.00113914 1.11762e-05 20.2298 4561.63 6232.52 
495 1.124 1.124 0 0.000444376 0.000444376 3.55122e-06 10.6487 2526.64 3411.94 
535 0.5742 0.5742 0 0.000146155 0.000146155 -7.16495e-06 5.09306 1387.56 1841.68 
575 0.2622 0.2622 0 2.25376e-05 2.25376e-05 -3.66693e-06 2.1649 600.631 800.183 
615 0.1188 0.1188 0 -1.72053e-05 -1.72053e-05 -6.12988e-07 0.970397 238.594 321.355 
655 0.0604 0.0604 0 -2.81307e-05 -2.81307e-05 -2.3693e-06 0.483497 103.739 160.02 
695 0.052 0.052 0 -3.56314e-05 -3.56314e-05 1.14716e-06 0.42146 74.8082 121.208 
735 0.0574 0.0574 0 -4.69809e-05 -4.69809e-05 3.80997e-08 0.501254 56.7891 103.686 
775 0.0556 0.0556 0 -4.44332e-05 -4.44332e-05 1.65486e-06 0.480577 62.7453 95.9507 
815 0.0536 0.0536 0 -3.58414e-05 -3.58414e-05 -5.36951e-07 0.44534 61.8215 96.9058 