ITEM: TIMESTEP
25000
ITEM: NUMBER OF SURFS
1000
ITEM: BOX BOUNDS oo rr pp
0 0.3
0 0.3
-0.5 0.5
ITEM: SURFS id f_4[1] f_4[2] f_4[3] f_4[4] f_4[5] f_4[6] f_4[7] f_4[8] f_4[9] 
1 0.7632 0.7632 0 3.29318e-05 3.29318e-05 2.4303e-07 0.371852 260.282 281.949 
41 1.6142 1.6142 0 9.05581e-05 9.05581e-05 3.63096e-07 0.901711 652.089 692.697 
81 2.8312 2.8312 0 0.000183811 0.000183811 -5.63558e-07 1.87196 1178.49 1259.03 
121 3.9568 3.9568 0 0.000286094 0.000286094 -1.78508e-07 2.97204 1658.23 1758.44 
161 5.0808 5.0808 0 0.000397671 0.000397671 -3.39225e-07 4.19252 2117.07 2263.14 
201 5.7094 5.7094 0 0.000466354 0.000466354 -1.25617e-06 4.94207 2370.3 2528.52 
241 6.0858 6.0858 0 0.000510136 0.000510136 -1.13312e-06 5.41176 2495.74 2672.66 
281 5.985 5.985 0 0.00049648 0.00049648 -8.75723e-07 5.26606 2454.03 2627.01 
321 5.339 5.339 0 0.000426911 0.000426911 1.11439e-06 4.50969 2214.25 2360.1 
361 4.4262 4.4262 0 0.000332523 0.000332523 -1.51855e-06 3.48677 1855.45 1974.25 
401 3.3056 3.3056 0 0.000226229 0.000226229 -1.29765e-06 2.31445 1390.61 1472.65 
441 2.0938 2.0938 0 0.000126012 0.000126012 4.30476e-07 1.26074 868.58 921.269 
481 1.063 1.063 0 5.27812e-05 5.27812e-05 -4.77413e-07 0.541083 400.434 427.786 
521 0.4442 0.4442 0 1.56042e-05 1.56042e-05 1.52715e-07 0.201086 136.542 150.839 
561 0.1604 0.1604 0 3.09635e-06 3.09635e-06 4.46686e-08 0.0667905 39.0216 43.876 
601 0.0602 0.0602 0 4.28178e-07 4.28178e-07 -2.57383e-08 0.0230661 12.3488 15.2985 
641 0.0196 0.0196 0 -1.58981e-07 -1.58981e-07 -3.8011e-08 0.00737304 2.74161 3.68178 
681 0.0064 0.0064 0 -1.06859e-07 -1.06859e-07 1.52665e-08 0.00205477 0.575808 0.831319 
721 0.003 0.003 0 -8.24689e-08 -8.24689e-08 -1.01789e-09 0.00096035 0.162559 0.470154 
761 0.0018 0.0018 0 -4.70083e-08 -4.70083e-08 2.09671e-08 0.000511596 0.144649 0.206996 
801 0.004 0.004 0 -1.12175e-07 -1.12175e-07 4.98888e-08 0.00151525 0.17484 0.372753 
841 0.0088 0.0088 0 -1.12631e-07 -1.12631e-07 3.09249e-09 0.00295683 0.802269 0.988223 
881 0.033 0.033 0 -2.08767e-08 -2.08767e-08 -6.35398e-08 0.0122858 5.46537 7.17661 
921 0.1066 0.1066 0 1.43957e-06 1.43957e-06 -2.82278e-07 0.0418471 23.1938 26.4681 
961 0.2822 0.2822 0 8.02167e-06 8.02167e-06 1.22393e-07 0.125426 79.611 88.6282 
2 0.759 0.759 0 3.31845e-05 3.31845e-05 -8.96419e-08 0.366756 264.993 286.741 
42 1.635 1.635 0 9.22175e-05 9.22175e-05 5.54809e-07 0.924957 659.101 701.667 
82 2.8056 2.8056 0 0.000183082 0.000183082 3.03453e-07 1.85924 1162.68 1236.25 
122 3.9704 3.9704 0 0.000288593 0.000288593 1.96142e-07 2.99615 1664.66 1771.68 
162 5.069 5.069 0 0.00039779 0.00039779 -8.49255e-08 4.19732 2119.34 2264.83 
202 5.7668 5.7668 0 0.000473175 0.000473175 1.32867e-06 5.01561 2360.31 2524.73 
242 6.094 6.094 0 0.000509842 0.000509842 6.33975e-07 5.40973 2499.73 2671.92 
282 5.948 5.948 0 0.000494123 0.000494123 -5.94311e-07 5.23718 2447.21 2619.36 
322 5.3758 5.3758 0 0.000431509 0.000431509 9.13426e-07 4.56436 2251.07 2394.3 
362 4.3872 4.3872 0 0.000329895 0.000329895 -1.27287e-06 3.44678 1842.82 1961.13 
402 3.2306 3.2306 0 0.000220677 0.000220677 -4.22069e-07 2.27021 1357.01 1438.36 
442 2.0812 2.0812 0 0.000125102 0.000125102 -6.10373e-07 1.24899 861.516 915.726 
482 1.073 1.073 0 5.3209e-05 5.3209e-05 1.41377e-07 0.551233 409.297 437.135 
522 0.4344 0.4344 0 1.4624e-05 1.4624e-05 -2.97396e-07 0.198447 127.062 140.849 
562 0.1542 0.1542 0 2.91263e-06 2.91263e-06 1.18291e-07 0.0638529 36.151 40.4366 
602 0.05 0.05 0 2.41436e-07 2.41436e-07 -6.09826e-09 0.0188412 9.76191 12.1099 
642 0.0128 0.0128 0 -1.88088e-07 -1.88088e-07 2.17046e-08 0.00471099 1.40193 1.87134 
682 0.004 0.004 0 -8.49994e-08 -8.49994e-08 -2.67915e-08 0.00136089 0.525477 0.711758 
722 0.004 0.004 0 -9.64366e-08 -9.64366e-08 2.00954e-08 0.00119061 0.323221 0.403703 
762 0.0028 0.0028 0 -7.07414e-08 -7.07414e-08 -1.89983e-08 0.00074023 0.0495827 0.131644 
802 0.0054 0.0054 0 -1.29357e-07 -1.29357e-07 8.23537e-09 0.00189203 0.567789 0.688944 
842 0.0096 0.0096 0 -1.06988e-07 -1.06988e-07 -7.14409e-08 0.00361985 1.71704 2.01804 
882 0.0354 0.0354 0 2.39077e-09 2.39077e-09 1.02783e-07 0.0122117 5.75099 7.13309 
922 0.1088 0.1088 0 1.51503e-06 1.51503e-06 -1.76674e-08 0.042365 24.1393 27.5694 
962 0.2972 0.2972 0 8.08804e-06 8.08804e-06 -1.53849e-07 0.132733 80.9753 89.5962 
3 0.7756 0.7756 0 3.42119e-05 3.42119e-05 -1.57096e-07 0.377042 275.942 301.095 
43 1.6752 1.6752 0 9.4672e-05 9.4672e-05 -7.89881e-07 0.950646 679.983 720.893 
83 2.8434 2.8434 0 0.000185987 0.000185987 -6.28981e-07 1.88241 1184.3 1259.5 
123 4.0304 4.0304 0 0.000290726 0.000290726 1.36486e-06 3.0428 1672.99 1784.07 
163 5.0502 5.0502 0 0.000393424 0.000393424 8.7402e-08 4.14675 2095.14 2232.85 
203 5.7082 5.7082 0 0.000469587 0.000469587 1.19115e-06 4.97372 2359 2524.64 
243 6.1508 6.1508 0 0.000516446 0.000516446 1.36223e-07 5.47921 2525.05 2703.02 
283 5.9544 5.9544 0 0.000491856 0.000491856 5.83037e-07 5.21656 2446.25 2618.43 
323 5.3444 5.3444 0 0.000427463 0.000427463 -1.13389e-06 4.51702 2224.39 2364.77 
363 4.3588 4.3588 0 0.00032603 0.00032603 5.5234e-08 3.40843 1839.03 1954.02 
403 3.2234 3.2234 0 0.000217361 0.000217361 3.32597e-07 2.24859 1333.13 1417.53 
443 2.0368 2.0368 0 0.000120912 0.000120912 -1.918e-07 1.21237 823.219 873.008 
483 1.0632 1.0632 0 5.1623e-05 5.1623e-05 -5.28244e-07 0.535463 397.553 428.669 
523 0.412 0.412 0 1.37592e-05 1.37592e-05 -2.19774e-07 0.187247 124.979 140.458 
563 0.1584 0.1584 0 2.95818e-06 2.95818e-06 -1.20865e-07 0.0669901 40.1078 46.624 
603 0.0526 0.0526 0 2.57385e-07 2.57385e-07 -8.85832e-08 0.0203903 11.5154 13.5149 
643 0.0198 0.0198 0 -1.18638e-07 -1.18638e-07 -1.66054e-08 0.00789186 4.53363 5.38277 
683 0.0058 0.0058 0 -1.20636e-07 -1.20636e-07 -7.01141e-08 0.00208463 0.621992 0.715065 
723 0.0022 0.0022 0 -6.74085e-08 -6.74085e-08 -1.09934e-08 0.000750219 0.374746 0.421223 
763 0.002 0.002 0 -6.39649e-08 -6.39649e-08 -6.90155e-09 0.000682023 0.0128701 0.0429722 
803 0.0024 0.0024 0 -5.00333e-08 -5.00333e-08 -1.99488e-09 0.000856836 0.36007 0.473134 
843 0.0106 0.0106 0 -8.73555e-08 -8.73555e-08 -1.751e-08 0.00364747 1.98629 2.45828 
883 0.0354 0.0354 0 9.99969e-08 9.99969e-08 -4.29117e-08 0.0127452 7.83473 8.99135 
923 0.0966 0.0966 0 1.43071e-06 1.43071e-06 1.0397e-07 0.039898 24.3083 27.769 
963 0.3082 0.3082 0 8.68722e-06 8.68722e-06 -8.91017e-08 0.135712 84.3321 94.8872 
4 0.799 0.799 0 3.58489e-05 3.58489e-05 -3.26228e-07 0.38828 282.752 308.595 
44 1.7222 1.7222 0 9.88844e-05 9.88844e-05 4.365e-07 0.985548 709.377 753.383 
84 2.8998 2.8998 0 0.000190808 0.000190808 -2.7299e-07 1.93188 1224.57 1301.05 
124 4.0014 4.0014 0 0.000291116 0.000291116 5.27863e-07 3.03907 1675.05 1787.33 
164 5.0748 5.0748 0 0.000398543 0.000398543 -1.11846e-06 4.20183 2115.57 2254.79 
204 5.8688 5.8688 0 0.00048335 0.00048335 -7.01635e-07 5.1239 2442.95 2602.42 
244 6.082 6.082 0 0.000509319 0.000509319 -1.48008e-06 5.40409 2504.63 2674.66 
284 6.0568 6.0568 0 0.00050103 0.00050103 5.49967e-08 5.31182 2491.38 2666.22 
324 5.3236 5.3236 0 0.000425224 0.000425224 -3.15727e-08 4.49691 2227.15 2377.15 
364 4.3572 4.3572 0 0.000324848 0.000324848 -3.00271e-07 3.39205 1831.84 1950.93 
404 3.2004 3.2004 0 0.000218331 0.000218331 1.36925e-06 2.23092 1349.15 1435.72 
444 2.0058 2.0058 0 0.000119816 0.000119816 5.49401e-07 1.18818 831.62 881.848 
484 1.032 1.032 0 5.0722e-05 5.0722e-05 3.85278e-07 0.521128 390.079 419.707 
524 0.4042 0.4042 0 1.33399e-05 1.33399e-05 1.77501e-07 0.182634 121.434 133.501 
564 0.1398 0.1398 0 2.45008e-06 2.45008e-06 5.07559e-08 0.0589473 31.2242 35.3822 
604 0.0464 0.0464 0 1.98411e-07 1.98411e-07 -6.0735e-08 0.0179025 10.2772 11.7285 
644 0.0156 0.0156 0 -1.47103e-07 -1.47103e-07 -2.26717e-08 0.00573 3.09625 3.92578 
684 0.0052 0.0052 0 -9.86488e-08 -9.86488e-08 4.95408e-08 0.00174507 0.900761 1.12141 
724 0.0032 0.0032 0 -9.129e-08 -9.129e-08 3.97859e-09 0.00107453 0.483033 0.590769 
764 0.0016 0.0016 0 -4.26256e-08 -4.26256e-08 1.33156e-08 0.000479311 0.137667 0.198147 
804 0.0046 0.0046 0 -8.30823e-08 -8.30823e-08 1.77227e-09 0.00146613 0.639288 0.668483 
844 0.0116 0.0116 0 -9.08091e-08 -9.08091e-08 -9.06886e-09 0.0038539 1.81677 2.44472 
884 0.0354 0.0354 0 1.10339e-07 1.10339e-07 7.6404e-08 0.0137007 8.32794 9.38195 
924 0.114 0.114 0 1.52889e-06 1.52889e-06 -2.03391e-07 0.0454431 23.2596 27.1391 
964 0.3138 0.3138 0 8.61848e-06 8.61848e-06 -1.93455e-07 0.140279 87.4052 98.9958 
5 0.8426 0.8426 0 3.716e-05 3.716e-05 5.59474e-07 0.408613 294.206 317.313 
45 1.728 1.728 0 9.85028e-05 9.85028e-05 3.82468e-07 0.98949 695.121 739.161 
85 2.8702 2.8702 0 0.000189172 0.000189172 6.4698e-07 1.92784 1200.18 1268.42 
125 4.1098 4.1098 0 0.000300005 0.000300005 -5.24898e-07 3.13352 1720.87 1837.58 
165 5.1216 5.1216 0 0.00040256 0.00040256 -7.62879e-07 4.25718 2140.41 2276.78 
205 5.8514 5.8514 0 0.000482894 0.000482894 5.65509e-07 5.12042 2449.42 2614.21 
245 6.1258 6.1258 0 0.000512732 0.000512732 1.00785e-07 5.43994 2515.24 2691.24 
285 5.9132 5.9132 0 0.000489194 0.000489194 -1.81108e-07 5.18809 2421.11 2589.11 
325 5.2916 5.2916 0 0.000422194 0.000422194 -8.10436e-07 4.46227 2182.75 2332.68 
365 4.3428 4.3428 0 0.000323491 0.000323491 -1.90237e-07 3.37713 1827.56 1949.29 
405 3.1708 3.1708 0 0.000213811 0.000213811 -6.9966e-07 2.19566 1320.24 1410.44 
445 2.0198 2.0198 0 0.000119743 0.000119743 4.46262e-07 1.19816 825.514 877.897 
485 1.0148 1.0148 0 4.85465e-05 4.85465e-05 -6.49717e-07 0.514725 373.155 402.031 
525 0.404 0.404 0 1.31983e-05 1.31983e-05 -1.55184e-07 0.185796 118.521 131.615 
565 0.144 0.144 0 2.59238e-06 2.59238e-06 -1.18289e-07 0.0589921 33.4922 37.6771 
605 0.0518 0.0518 0 4.17127e-07 4.17127e-07 -4.88688e-08 0.0198758 12.3231 14.5598 
645 0.0148 0.0148 0 -1.40708e-07 -1.40708e-07 -2.62807e-08 0.00563286 2.44457 2.82805 
685 0.004 0.004 0 -6.7816e-08 -6.7816e-08 -2.7329e-08 0.00151139 0.99129 1.12963 
725 0.0028 0.0028 0 -8.36216e-08 -8.36216e-08 -2.13441e-09 0.000969831 0.093083 0.160014 
765 0.0014 0.0014 0 -4.86547e-08 -4.86547e-08 -1.19778e-08 0.000543086 0.0413148 0.23827 
805 0.0046 0.0046 0 -1.00538e-07 -1.00538e-07 -9.04562e-09 0.00165346 1.0808 1.18625 
845 0.0126 0.0126 0 -1.37334e-07 -1.37334e-07 -2.41103e-08 0.00474444 1.93518 2.22869 
885 0.0384 0.0384 0 -9.08998e-09 -9.08998e-09 -2.94084e-08 0.0154878 7.11099 8.26756 
925 0.1092 0.1092 0 1.55349e-06 1.55349e-06 -1.25336e-08 0.0438875 26.0003 29.2492 
965 0.3102 0.3102 0 9.21401e-06 9.21401e-06 1.29018e-07 0.136421 87.0137 96.5277 
6 0.8544 0.8544 0 3.96823e-05 3.96823e-05 1.84207e-07 0.420193 314.295 335.629 
46 1.7902 1.7902 0 0.000103638 0.000103638 2.66051e-07 1.03187 732.837 779.338 
86 2.8952 2.8952 0 0.000191757 0.000191757 1.68278e-07 1.95154 1216.18 1293.15 
126 4.1236 4.1236 0 0.000301111 0.000301111 9.53931e-07 3.15691 1712.17 1822.93 
166 5.1078 5.1078 0 0.000404407 0.000404407 1.63993e-06 4.2728 2141.66 2286.54 
206 5.8784 5.8784 0 0.000484688 0.000484688 -2.28379e-07 5.13928 2426.92 2598.56 
246 6.1052 6.1052 0 0.000510908 0.000510908 -1.17874e-06 5.4209 2500.58 2678.35 
286 5.914 5.914 0 0.000488586 0.000488586 2.77025e-07 5.18039 2426.07 2598.86 
326 5.1938 5.1938 0 0.00041174 0.00041174 -1.23949e-06 4.35354 2151.99 2295.37 
366 4.3358 4.3358 0 0.00032165 0.00032165 -1.88409e-08 3.37245 1814.7 1928.95 
406 3.1004 3.1004 0 0.000208606 0.000208606 -2.24962e-07 2.15029 1286.41 1366.68 
446 1.96 1.96 0 0.000116167 0.000116167 -8.16096e-09 1.16269 807.456 854.729 
486 0.9562 0.9562 0 4.47974e-05 4.47974e-05 1.77235e-07 0.483713 346.517 373.335 
526 0.3994 0.3994 0 1.2872e-05 1.2872e-05 6.80437e-08 0.180938 113.034 126.734 
566 0.137 0.137 0 2.49831e-06 2.49831e-06 1.18346e-07 0.0554202 32.5055 36.9387 
606 0.0452 0.0452 0 3.48429e-07 3.48429e-07 6.44355e-08 0.0175998 9.81585 11.5973 
646 0.013 0.013 0 -1.72971e-07 -1.72971e-07 -3.60354e-08 0.00498601 2.16121 2.63759 
686 0.0058 0.0058 0 -8.78041e-08 -8.78041e-08 -6.22158e-08 0.0021048 1.44822 1.58399 
726 0.0014 0.0014 0 -2.96275e-08 -2.96275e-08 1.78928e-09 0.000305469 0.0333024 0.0419837 
766 0.0008 0.0008 0 -1.5486e-08 -1.5486e-08 7.91938e-09 0.000188447 0.105756 0.214663 
806 0.0028 0.0028 0 -4.96877e-08 -4.96877e-08 5.44966e-09 0.000911738 0.278526 0.399985 
846 0.0126 0.0126 0 -1.92001e-07 -1.92001e-07 5.04162e-08 0.00495947 1.92895 2.56605 
886 0.0388 0.0388 0 4.83405e-08 4.83405e-08 -8.62322e-08 0.0146773 7.4387 8.67844 
926 0.1146 0.1146 0 1.7286e-06 1.7286e-06 9.28846e-08 0.0459653 25.3043 28.8991 
966 0.3352 0.3352 0 9.81409e-06 9.81409e-06 -1.45325e-08 0.149698 93.2692 103.871 
7 0.8578 0.8578 0 4.01864e-05 4.01864e-05 8.98346e-08 0.425017 312.466 335.921 
47 1.7958 1.7958 0 0.000103359 0.000103359 1.98103e-07 1.03252 724.236 769.426 
87 2.9404 2.9404 0 0.000194989 0.000194989 -1.4223e-06 1.99051 1228.82 1305.94 
127 4.1318 4.1318 0 0.000299868 0.000299868 -1.0013e-06 3.13296 1714.57 1825.81 
167 5.1746 5.1746 0 0.000409333 0.000409333 -7.867e-07 4.3196 2155.77 2294.66 
207 5.8248 5.8248 0 0.000481833 0.000481833 -3.15296e-07 5.11099 2421.48 2580.32 
247 6.0882 6.0882 0 0.00051247 0.00051247 7.21982e-07 5.43717 2531.32 2702.08 
287 5.8616 5.8616 0 0.000487209 0.000487209 8.58744e-07 5.16607 2399.28 2560.05 
327 5.3344 5.3344 0 0.000423738 0.000423738 -1.36534e-06 4.47926 2222.58 2366.47 
367 4.2506 4.2506 0 0.000314447 0.000314447 -7.43446e-07 3.29387 1774.86 1888.02 
407 3.0944 3.0944 0 0.000208054 0.000208054 2.67298e-07 2.13538 1300.17 1376.89 
447 1.9528 1.9528 0 0.00011567 0.00011567 -1.05344e-06 1.15388 809.647 861.59 
487 0.953 0.953 0 4.51245e-05 4.51245e-05 2.47756e-07 0.478598 351.727 377.612 
527 0.3702 0.3702 0 1.20212e-05 1.20212e-05 1.21758e-07 0.165296 107.444 119.233 
567 0.1418 0.1418 0 2.21317e-06 2.21317e-06 -4.91514e-08 0.0597545 33.0659 37.7343 
607 0.0414 0.0414 0 2.89799e-07 2.89799e-07 2.72718e-08 0.0151675 7.73181 9.28041 
647 0.0158 0.0158 0 -1.65957e-07 -1.65957e-07 3.39116e-08 0.00619616 2.34384 3.0289 
687 0.0068 0.0068 0 -1.61235e-07 -1.61235e-07 4.69217e-08 0.00238771 0.534245 0.674712 
727 0.001 0.001 0 -3.1372e-08 -3.1372e-08 -3.40898e-09 0.000342287 0.0719706 0.124212 
767 0.0026 0.0026 0 -7.50979e-08 -7.50979e-08 2.06021e-08 0.000806988 0.123405 0.24657 
807 0.0058 0.0058 0 -1.36991e-07 -1.36991e-07 -8.68808e-08 0.00186892 0.413214 0.755733 
847 0.0124 0.0124 0 -1.29618e-07 -1.29618e-07 -2.34095e-09 0.00428702 2.00976 2.42328 
887 0.0366 0.0366 0 2.42268e-07 2.42268e-07 -9.96618e-09 0.0135107 8.41007 9.61283 
927 0.1226 0.1226 0 1.81481e-06 1.81481e-06 -1.47804e-07 0.0497008 26.8582 30.3495 
967 0.3186 0.3186 0 9.82229e-06 9.82229e-06 2.42493e-07 0.142119 91.5914 101.85 
8 0.8702 0.8702 0 4.02246e-05 4.02246e-05 -2.55983e-07 0.432442 320.257 344.089 
48 1.8066 1.8066 0 0.000103727 0.000103727 -8.20128e-07 1.04504 727.937 775.519 
88 2.9972 2.9972 0 0.00019932 0.00019932 1.10177e-07 2.02395 1264.63 1342.63 
128 4.1366 4.1366 0 0.000304741 0.000304741 -6.06663e-08 3.17548 1737.4 1850.49 
168 5.1526 5.1526 0 0.000408261 0.000408261 2.02365e-06 4.31271 2135.84 2279.02 
208 5.8444 5.8444 0 0.000481799 0.000481799 -4.85492e-07 5.10944 2411.72 2579.73 
248 6.0612 6.0612 0 0.000509187 0.000509187 -7.7199e-07 5.40261 2498.39 2673.38 
288 5.8614 5.8614 0 0.000485085 0.000485085 -6.59791e-07 5.14443 2422.68 2586.58 
328 5.2414 5.2414 0 0.000418581 0.000418581 2.83183e-07 4.41919 2202.22 2356.69 
368 4.2302 4.2302 0 0.000312336 0.000312336 4.67664e-07 3.25645 1760.85 1876.81 
408 3.0652 3.0652 0 0.000205363 0.000205363 -7.25055e-07 2.11199 1273.85 1357.55 
448 1.8976 1.8976 0 0.000111857 0.000111857 -1.9186e-07 1.11398 776.074 825.311 
488 0.9448 0.9448 0 4.49122e-05 4.49122e-05 -4.18721e-07 0.46889 350.244 376.33 
528 0.3594 0.3594 0 1.15882e-05 1.15882e-05 -1.49434e-07 0.160027 108.245 118.544 
568 0.134 0.134 0 2.22055e-06 2.22055e-06 -5.39161e-08 0.0556829 30.6713 35.0348 
608 0.0466 0.0466 0 1.91757e-07 1.91757e-07 1.33358e-07 0.0186121 9.95363 12.1301 
648 0.0134 0.0134 0 -9.18065e-08 -9.18065e-08 -4.98078e-09 0.00451883 2.56662 3.10204 
688 0.004 0.004 0 -9.24073e-08 -9.24073e-08 -4.46672e-09 0.00152222 0.689551 0.708318 
728 0.0016 0.0016 0 -3.74181e-08 -3.74181e-08 2.32972e-09 0.00043267 0.0366727 0.0561071 
768 0.0026 0.0026 0 -9.23419e-08 -9.23419e-08 2.8702e-08 0.00102536 0.254461 0.311757 
808 0.0042 0.0042 0 -8.0671e-08 -8.0671e-08 -2.01347e-08 0.0013484 0.605443 0.886717 
848 0.0126 0.0126 0 -1.11994e-07 -1.11994e-07 5.61753e-08 0.00479349 2.27219 2.67624 
888 0.0434 0.0434 0 8.957e-08 8.957e-08 -5.79718e-09 0.0160998 8.07718 9.45078 
928 0.1252 0.1252 0 2.18647e-06 2.18647e-06 2.82578e-08 0.0492727 30.6348 34.3774 
968 0.3386 0.3386 0 1.07948e-05 1.07948e-05 1.56032e-07 0.148548 101.398 111.508 
9 0.9236 0.9236 0 4.36526e-05 4.36526e-05 -2.52937e-07 0.459746 339.44 364.418 
49 1.8506 1.8506 0 0.000107572 0.000107572 5.55553e-07 1.07771 753.588 798.98 
89 3.0098 3.0098 0 0.00020054 0.00020054 2.65761e-07 2.04667 1257.94 1339.12 
129 4.1588 4.1588 0 0.000305823 0.000305823 -1.71196e-07 3.19738 1740.9 1854.44 
169 5.1842 5.1842 0 0.000408426 0.000408426 -2.95464e-08 4.31445 2136.4 2286.6 
209 5.8522 5.8522 0 0.000485386 0.000485386 3.54922e-08 5.14508 2429.94 2597.44 
249 6.102 6.102 0 0.000513936 0.000513936 -1.25351e-06 5.453 2510.73 2682.96 
289 5.8162 5.8162 0 0.000481268 0.000481268 -3.35064e-08 5.09798 2432.86 2598.53 
329 5.1522 5.1522 0 0.00040957 0.00040957 1.81001e-06 4.33439 2144.72 2283.68 
369 4.1884 4.1884 0 0.000309129 0.000309129 4.05903e-08 3.23517 1750.2 1857.99 
409 3.0074 3.0074 0 0.000200356 0.000200356 -1.87083e-06 2.05038 1261.19 1336.18 
449 1.8818 1.8818 0 0.000110823 0.000110823 -3.31127e-07 1.09983 774.035 824.873 
489 0.9198 0.9198 0 4.27068e-05 4.27068e-05 8.07237e-09 0.459416 334.632 361.361 
529 0.3582 0.3582 0 1.10942e-05 1.10942e-05 2.09931e-07 0.159781 101.903 113.77 
569 0.127 0.127 0 2.19377e-06 2.19377e-06 3.15022e-07 0.0512514 29.9395 34.8665 
609 0.0414 0.0414 0 1.34947e-07 1.34947e-07 9.08319e-08 0.0171832 9.35973 11.1238 
649 0.013 0.013 0 -9.89308e-08 -9.89308e-08 -2.04578e-08 0.00445778 1.82083 2.40329 
689 0.0042 0.0042 0 -9.55849e-08 -9.55849e-08 -5.46263e-09 0.00141431 0.429579 0.683462 
729 0.0036 0.0036 0 -1.07483e-07 -1.07483e-07 -3.05288e-08 0.00115664 0.196601 0.31076 
769 0.0024 0.0024 0 -7.39489e-08 -7.39489e-08 1.89058e-08 0.000805151 0.106851 0.168604 
809 0.0048 0.0048 0 -7.29778e-08 -7.29778e-08 -1.86868e-08 0.00158889 1.09993 1.29358 
849 0.0128 0.0128 0 -6.8304e-08 -6.8304e-08 -2.45268e-08 0.00425549 2.05585 2.20474 
889 0.042 0.042 0 1.57409e-07 1.57409e-07 -5.37314e-08 0.0160517 10.0892 11.3074 
929 0.1292 0.1292 0 1.92812e-06 1.92812e-06 1.77726e-07 0.0540209 28.7474 33.77 
969 0.3588 0.3588 0 1.11013e-05 1.11013e-05 -4.55934e-08 0.160016 105.392 117.29 
10 0.9084 0.9084 0 4.23619e-05 4.23619e-05 3.46741e-07 0.454352 334.199 358.421 
50 1.8886 1.8886 0 0.00010984 0.00010984 -9.69601e-08 1.10201 765.496 813.97 
90 3.0354 3.0354 0 0.000203092 0.000203092 -3.09347e-07 2.07984 1270.44 1350.28 
130 4.2576 4.2576 0 0.00031386 0.00031386 1.13169e-06 3.28861 1778.6 1896.63 
170 5.1764 5.1764 0 0.000409891 0.000409891 -1.78863e-07 4.3281 2162.53 2308.05 
210 5.8612 5.8612 0 0.00048477 0.00048477 6.08056e-07 5.13842 2410.89 2581.47 
250 6.1286 6.1286 0 0.000515441 0.000515441 -6.52407e-07 5.46896 2552.16 2727.27 
290 5.8064 5.8064 0 0.000477875 0.000477875 1.75032e-06 5.0667 2379.19 2543.11 
330 5.1832 5.1832 0 0.000409684 0.000409684 -2.73947e-07 4.32436 2170.65 2321.01 
370 4.1712 4.1712 0 0.000306855 0.000306855 -9.7923e-07 3.20906 1746.95 1857.54 
410 2.9946 2.9946 0 0.000199623 0.000199623 -5.8726e-07 2.03397 1254.65 1327.25 
450 1.899 1.899 0 0.000108954 0.000108954 -2.31177e-07 1.09572 763.766 812.621 
490 0.8874 0.8874 0 4.26161e-05 4.26161e-05 -7.35731e-07 0.438975 339.555 364.971 
530 0.3488 0.3488 0 1.12781e-05 1.12781e-05 -1.46362e-07 0.155647 104.91 116.204 
570 0.1348 0.1348 0 2.23673e-06 2.23673e-06 6.31814e-08 0.0556837 30.6887 35.7048 
610 0.0404 0.0404 0 9.6093e-08 9.6093e-08 4.25921e-08 0.0156468 7.30871 8.76611 
650 0.0144 0.0144 0 -1.31526e-07 -1.31526e-07 -4.00557e-08 0.00535226 2.73632 3.36583 
690 0.0034 0.0034 0 -8.7509e-08 -8.7509e-08 -2.18947e-08 0.00144034 0.485039 0.640755 
730 0.0012 0.0012 0 -3.98192e-08 -3.98192e-08 -2.18599e-08 0.000468387 0.13741 0.16026 
770 0.0016 0.0016 0 -4.62215e-08 -4.62215e-08 2.22274e-09 0.000523567 0.144853 0.187387 
810 0.0076 0.0076 0 -1.33851e-07 -1.33851e-07 2.8518e-08 0.00233601 1.05308 1.31186 
850 0.013 0.013 0 -1.259e-07 -1.259e-07 2.7995e-08 0.00508479 2.76035 3.50888 
890 0.0432 0.0432 0 1.63725e-07 1.63725e-07 9.05177e-08 0.0170269 8.18075 9.72137 
930 0.1312 0.1312 0 2.35321e-06 2.35321e-06 -7.49043e-08 0.0530229 32.0043 36.337 
970 0.3612 0.3612 0 1.10282e-05 1.10282e-05 -2.96486e-07 0.15996 101.259 111.4 
11 0.9554 0.9554 0 4.46141e-05 4.46141e-05 -4.1979e-07 0.476061 346.796 372.132 
51 1.925 1.925 0 0.0001136 0.0001136 -9.54913e-08 1.13065 788.569 835.627 
91 3.0634 3.0634 0 0.000206345 0.000206345 -3.26185e-09 2.09414 1292.88 1368.47 
131 4.2888 4.2888 0 0.000318096 0.000318096 -2.69744e-07 3.30992 1817.05 1931.88 
171 5.2588 5.2588 0 0.000415719 0.000415719 7.14676e-07 4.3966 2184.1 2330.01 
211 5.8416 5.8416 0 0.000481721 0.000481721 -7.45802e-07 5.10846 2396.87 2559.85 
251 6.2038 6.2038 0 0.000520134 0.000520134 -8.63065e-07 5.51864 2581.17 2755 
291 5.7722 5.7722 0 0.000479669 0.000479669 -2.43577e-07 5.08625 2387.39 2553.78 
331 5.1346 5.1346 0 0.000403664 0.000403664 3.10497e-07 4.26748 2122.14 2266.49 
371 4.1742 4.1742 0 0.000306445 0.000306445 1.51265e-07 3.19361 1752.92 1863.85 
411 2.979 2.979 0 0.000199243 0.000199243 -1.50285e-07 2.0296 1262.16 1337.53 
451 1.8226 1.8226 0 0.000105054 0.000105054 3.10385e-07 1.05877 731.544 779.279 
491 0.8684 0.8684 0 3.99677e-05 3.99677e-05 -3.34085e-07 0.430534 315.731 337.424 
531 0.3514 0.3514 0 1.08909e-05 1.08909e-05 7.54564e-08 0.157914 101.632 112.741 
571 0.1264 0.1264 0 2.04217e-06 2.04217e-06 2.13603e-10 0.0520868 27.6277 33.3858 
611 0.0378 0.0378 0 -3.03434e-08 -3.03434e-08 4.42462e-08 0.0140206 5.77808 6.51373 
651 0.0156 0.0156 0 -1.6331e-07 -1.6331e-07 3.49077e-08 0.00567118 2.94463 3.41967 
691 0.0042 0.0042 0 -8.31709e-08 -8.31709e-08 3.72766e-08 0.00123486 0.258318 0.254793 
731 0.002 0.002 0 -6.1815e-08 -6.1815e-08 1.48648e-08 0.00069443 -0.0567963 0.0546407 
771 0.0018 0.0018 0 -4.69866e-08 -4.69866e-08 -1.26214e-08 0.000554915 0.292497 0.297002 
811 0.0044 0.0044 0 -9.32355e-08 -9.32355e-08 -1.4118e-08 0.00173306 0.794132 0.935652 
851 0.0144 0.0144 0 -1.61862e-07 -1.61862e-07 3.24887e-08 0.00556224 2.6738 3.21028 
891 0.044 0.044 0 1.1717e-07 1.1717e-07 4.58939e-08 0.0171258 8.85834 10.1234 
931 0.1354 0.1354 0 2.31563e-06 2.31563e-06 2.28271e-07 0.0565256 33.1329 37.486 
971 0.3566 0.3566 0 1.12068e-05 1.12068e-05 1.00525e-07 0.160544 103.083 113.43 
12 0.9656 0.9656 0 4.56782e-05 4.56782e-05 2.48641e-07 0.489301 355.67 381.265 
52 1.9948 1.9948 0 0.000117422 0.000117422 -2.46794e-07 1.17953 812.736 860.021 
92 3.0872 3.0872 0 0.000207952 0.000207952 -7.50453e-07 2.13496 1301.03 1379.09 
132 4.233 4.233 0 0.000315036 0.000315036 1.28675e-07 3.29862 1778.15 1889.88 
172 5.2404 5.2404 0 0.000416097 0.000416097 -4.32365e-07 4.388 2196.51 2337.74 
212 5.89 5.89 0 0.000487123 0.000487123 6.41075e-07 5.16721 2411.5 2585.14 
252 6.074 6.074 0 0.000511239 0.000511239 -1.74304e-06 5.42445 2516.96 2690.38 
292 5.8352 5.8352 0 0.000482057 0.000482057 -7.99498e-07 5.11142 2417.83 2579.97 
332 5.062 5.062 0 0.000398247 0.000398247 1.50041e-06 4.19849 2110.44 2247.73 
372 4.1258 4.1258 0 0.000302375 0.000302375 7.17363e-07 3.16294 1734.29 1839.25 
412 2.9152 2.9152 0 0.00019374 0.00019374 1.1791e-06 1.97622 1218.92 1294.56 
452 1.8276 1.8276 0 0.000105078 0.000105078 2.26811e-07 1.05375 744.358 791.277 
492 0.8646 0.8646 0 3.99856e-05 3.99856e-05 1.40287e-07 0.425917 313.402 339.81 
532 0.3316 0.3316 0 9.83346e-06 9.83346e-06 -2.17307e-07 0.146235 94.1831 106.796 
572 0.1228 0.1228 0 2.0095e-06 2.0095e-06 1.97969e-07 0.0496246 27.0783 31.5502 
612 0.0382 0.0382 0 1.23762e-07 1.23762e-07 6.18635e-08 0.0141716 7.79563 9.11639 
652 0.0096 0.0096 0 -9.54404e-08 -9.54404e-08 -2.9383e-08 0.00357384 1.81945 2.16302 
692 0.0042 0.0042 0 -1.02599e-07 -1.02599e-07 -8.2364e-10 0.00152497 0.692527 0.831009 
732 0.0026 0.0026 0 -8.09476e-08 -8.09476e-08 2.17557e-09 0.000894304 0.180554 0.234784 
772 0.0016 0.0016 0 -5.37223e-08 -5.37223e-08 -4.29107e-09 0.000582271 0.0111946 0.150421 
812 0.0048 0.0048 0 -1.02884e-07 -1.02884e-07 9.57065e-09 0.00163086 0.584075 0.876255 
852 0.0172 0.0172 0 -1.67257e-07 -1.67257e-07 2.97082e-08 0.00626929 2.49535 3.11117 
892 0.049 0.049 0 1.53325e-07 1.53325e-07 4.82769e-09 0.019399 9.95665 12.1604 
932 0.1372 0.1372 0 2.40493e-06 2.40493e-06 1.87017e-07 0.055856 34.5511 39.9508 
972 0.365 0.365 0 1.17326e-05 1.17326e-05 1.46229e-07 0.163013 107.661 120.467 
13 0.9886 0.9886 0 4.88128e-05 4.88128e-05 -4.89482e-08 0.490844 375.374 401.276 
53 1.9446 1.9446 0 0.000114925 0.000114925 -5.27619e-07 1.15367 793.271 843.795 
93 3.1624 3.1624 0 0.000212214 0.000212214 -5.73917e-07 2.18063 1318.72 1397.37 
133 4.3232 4.3232 0 0.000319508 0.000319508 -5.856e-07 3.34899 1797.49 1914.13 
173 5.3024 5.3024 0 0.000423053 0.000423053 2.1964e-07 4.4737 2190.54 2336.97 
213 5.907 5.907 0 0.000492481 0.000492481 6.39799e-07 5.22507 2453 2621.45 
253 6.0996 6.0996 0 0.000513772 0.000513772 4.01368e-07 5.45097 2515.45 2679.02 
293 5.765 5.765 0 0.000475738 0.000475738 -1.53241e-06 5.04258 2396 2557.68 
333 5.0852 5.0852 0 0.000400339 0.000400339 -5.31354e-07 4.22664 2098.96 2240.66 
373 4.0928 4.0928 0 0.000297777 0.000297777 4.08974e-07 3.10864 1714 1822.25 
413 2.9092 2.9092 0 0.000193038 0.000193038 8.93284e-07 1.96326 1212.23 1289.97 
453 1.7794 1.7794 0 0.000102283 0.000102283 -4.82338e-08 1.01957 716.474 759.643 
493 0.8468 0.8468 0 3.74035e-05 3.74035e-05 -5.18326e-08 0.415769 293.836 319.475 
533 0.3202 0.3202 0 9.34328e-06 9.34328e-06 1.85848e-07 0.143656 89.1126 100.694 
573 0.1136 0.1136 0 1.82059e-06 1.82059e-06 -5.25287e-08 0.0463406 26.4594 31.3787 
613 0.0376 0.0376 0 -3.69458e-08 -3.69458e-08 -4.20667e-08 0.0156514 7.62268 8.48599 
653 0.0124 0.0124 0 -1.96141e-07 -1.96141e-07 -2.56992e-08 0.00502644 1.74483 2.28629 
693 0.0044 0.0044 0 -1.02757e-07 -1.02757e-07 -2.2167e-09 0.00156936 0.285567 0.449877 
733 0.001 0.001 0 -3.45558e-08 -3.45558e-08 4.92792e-09 0.000369602 0.100326 0.270138 
773 0.0028 0.0028 0 -9.08278e-08 -9.08278e-08 -7.72093e-09 0.0010171 0.18892 0.33042 
813 0.0036 0.0036 0 -7.26201e-08 -7.26201e-08 -4.71611e-08 0.0012201 0.436728 0.730341 
853 0.0148 0.0148 0 -1.2977e-07 -1.2977e-07 -1.62094e-08 0.00535184 2.47013 2.86932 
893 0.0494 0.0494 0 1.2805e-07 1.2805e-07 -3.64177e-08 0.0193222 8.36318 10.0796 
933 0.1474 0.1474 0 2.90332e-06 2.90332e-06 1.52412e-07 0.058708 36.425 40.7371 
973 0.3864 0.3864 0 1.2541e-05 1.2541e-05 -9.12044e-08 0.171395 113.194 124.509 
14 1.0162 1.0162 0 4.77232e-05 4.77232e-05 -3.38821e-07 0.510563 361.394 390.043 
54 2 2 0 0.000118216 0.000118216 5.47613e-07 1.18707 815.9 865.728 
94 3.1534 3.1534 0 0.000212666 0.000212666 7.33284e-07 2.17958 1315.91 1397.83 
134 4.3788 4.3788 0 0.000324996 0.000324996 1.13561e-06 3.40383 1831 1954.14 
174 5.3526 5.3526 0 0.000428369 0.000428369 -7.08052e-07 4.5291 2241.09 2389.52 
214 5.9608 5.9608 0 0.000495518 0.000495518 -7.77605e-07 5.25733 2450.46 2622.52 
254 6.1398 6.1398 0 0.000516643 0.000516643 -8.33488e-07 5.48111 2524.29 2700.04 
294 5.8022 5.8022 0 0.000478445 0.000478445 9.99106e-07 5.07004 2407.03 2577.32 
334 5.0962 5.0962 0 0.000400873 0.000400873 8.38212e-08 4.23861 2120.8 2260.02 
374 4.0342 4.0342 0 0.000292782 0.000292782 1.04285e-06 3.06563 1670.72 1784.64 
414 2.9206 2.9206 0 0.000192351 0.000192351 4.85335e-07 1.95638 1215.94 1293.17 
454 1.7806 1.7806 0 0.000101814 0.000101814 -6.21397e-07 1.01935 727.341 772.035 
494 0.812 0.812 0 3.65637e-05 3.65637e-05 -7.58881e-07 0.397005 292.812 314.749 
534 0.3118 0.3118 0 9.22785e-06 9.22785e-06 3.74953e-08 0.139908 89.1174 101.105 
574 0.1064 0.1064 0 1.4978e-06 1.4978e-06 1.69276e-08 0.0433426 25.1197 28.6067 
614 0.0356 0.0356 0 3.74601e-08 3.74601e-08 8.2244e-09 0.0138361 6.75016 7.98646 
654 0.0116 0.0116 0 -1.22173e-07 -1.22173e-07 -2.45288e-08 0.00426872 1.9347 2.50587 
694 0.0044 0.0044 0 -9.66041e-08 -9.66041e-08 -1.88709e-08 0.00147064 0.368904 0.422494 
734 0.0028 0.0028 0 -8.32964e-08 -8.32964e-08 3.7742e-09 0.000943387 0.282205 0.357903 
774 0.0026 0.0026 0 -9.13976e-08 -9.13976e-08 1.00689e-09 0.000987042 -0.07748 0.143043 
814 0.0058 0.0058 0 -7.85457e-08 -7.85457e-08 -1.00771e-08 0.00197959 1.19325 1.41099 
854 0.0162 0.0162 0 -1.87638e-07 -1.87638e-07 -1.49616e-08 0.00662794 2.70177 3.15091 
894 0.0462 0.0462 0 2.91645e-07 2.91645e-07 3.0453e-08 0.0173357 10.4478 11.8557 
934 0.1422 0.1422 0 2.44548e-06 2.44548e-06 -5.19646e-08 0.0581607 35.1338 39.8003 
974 0.406 0.406 0 1.33079e-05 1.33079e-05 1.13446e-07 0.182853 119.712 133.116 
15 1.0276 1.0276 0 4.99505e-05 4.99505e-05 -1.56472e-09 0.521918 382.999 410.175 
55 2.0082 2.0082 0 0.000119521 0.000119521 7.48113e-08 1.19869 824.868 877.39 
95 3.1886 3.1886 0 0.000216177 0.000216177 -4.60825e-08 2.21641 1331.61 1410.57 
135 4.2852 4.2852 0 0.000320649 0.000320649 -1.26726e-06 3.35901 1800.7 1916.67 
175 5.3002 5.3002 0 0.000422117 0.000422117 -5.79762e-08 4.46827 2205.7 2352.22 
215 5.9486 5.9486 0 0.000493711 0.000493711 -6.39063e-07 5.23657 2441.42 2607.67 
255 6.1118 6.1118 0 0.000512154 0.000512154 -9.11902e-07 5.43374 2523.07 2703.06 
295 5.8282 5.8282 0 0.000480449 0.000480449 -6.68862e-07 5.09275 2402.34 2570.15 
335 5.0608 5.0608 0 0.000395978 0.000395978 7.89313e-07 4.17663 2101.77 2245.38 
375 3.977 3.977 0 0.000289533 0.000289533 4.1275e-07 3.01381 1668.98 1773.82 
415 2.8586 2.8586 0 0.000188556 0.000188556 -1.60418e-07 1.90707 1202.27 1270.41 