ITEM: TIMESTEP
25000
ITEM: NUMBER OF SURFS
1000
ITEM: BOX BOUNDS oo rr pp
0 0.3
0 0.3
-0.5 0.5
ITEM: SURFS id f_4[1] f_4[2] f_4[3] f_4[4] f_4[5] f_4[6] f_4[7] f_4[8] f_4[9] 
1 0.4248 0.4248 0 2.75258e-07 2.75258e-07 5.26629e-10 0.0018932 2.45295 2.43801 
41 1.4092 1.4092 0 1.10623e-06 1.10623e-06 -3.15966e-09 0.00788202 8.85182 8.80191 
81 2.6 2.6 0 2.28491e-06 2.28491e-06 6.73628e-09 0.0194829 16.5512 16.4682 
121 3.6568 3.6568 0 3.58844e-06 3.58844e-06 -1.34228e-09 0.0342203 23.5296 23.4242 
161 4.4788 4.4788 0 4.78495e-06 4.78495e-06 9.79549e-09 0.0487187 28.7341 28.6433 
201 4.98 4.98 0 5.64442e-06 5.64442e-06 4.87264e-09 0.0592423 31.9391 31.8174 
241 5.2052 5.2052 0 6.08465e-06 6.08465e-06 -4.7276e-09 0.0645402 33.6212 33.4692 
281 5.0436 5.0436 0 5.81278e-06 5.81278e-06 -5.56478e-09 0.0614059 32.6509 32.5034 
321 4.7094 4.7094 0 5.17271e-06 5.17271e-06 1.57565e-09 0.053449 30.3212 30.1932 
361 3.9978 3.9978 0 4.08171e-06 4.08171e-06 -2.88589e-09 0.0400935 25.8843 25.7544 
401 3.066 3.066 0 2.83178e-06 2.83178e-06 5.17158e-09 0.0253455 19.6762 19.5855 
441 1.9116 1.9116 0 1.58062e-06 1.58062e-06 1.29018e-09 0.0121695 12.1672 12.1277 
481 0.8016 0.8016 0 5.78279e-07 5.78279e-07 -4.82386e-09 0.00381925 4.95659 4.94808 
521 0.1598 0.1598 0 7.63184e-08 7.63184e-08 9.31834e-10 0.000750308 0.796827 0.799548 
561 0.0434 0.0434 0 3.30404e-11 3.30404e-11 1.08778e-10 0.000305636 0.139092 0.135015 
601 0.0334 0.0334 0 -4.3034e-09 -4.3034e-09 -2.13031e-10 0.000221847 0.0887271 0.0936269 
641 0.022 0.022 0 -2.91226e-09 -2.91226e-09 -1.66526e-10 0.000123193 0.0756499 0.0761293 
681 0.0136 0.0136 0 -1.90979e-09 -1.90979e-09 -8.03792e-10 5.04509e-05 0.0342832 0.0336775 
721 0.0028 0.0028 0 -3.73348e-10 -3.73348e-10 1.59865e-10 6.81135e-06 0.00985033 0.009605 
761 0 0 0 0 0 0 0 0 0 
801 0.0102 0.0102 0 -1.51083e-09 -1.51083e-09 5.32144e-12 3.61323e-05 0.0371186 0.0370014 
841 0.0202 0.0202 0 -2.66105e-09 -2.66105e-09 -5.12915e-10 9.00715e-05 0.0481522 0.0501598 
881 0.0324 0.0324 0 -4.43329e-09 -4.43329e-09 4.41534e-11 0.000196489 0.0919724 0.0949826 
921 0.0422 0.0422 0 -3.96639e-09 -3.96639e-09 4.37692e-10 0.000299114 0.118707 0.118442 
961 0.0714 0.0714 0 1.50575e-08 1.50575e-08 -4.90794e-10 0.000421298 0.245572 0.249682 
2 0.4544 0.4544 0 2.99274e-07 2.99274e-07 -2.93414e-10 0.00204166 2.71149 2.70869 
42 1.4162 1.4162 0 1.11039e-06 1.11039e-06 -3.7868e-10 0.00800728 8.90427 8.87388 
82 2.6556 2.6556 0 2.34916e-06 2.34916e-06 6.72006e-09 0.0198457 17.0113 16.8966 
122 3.6896 3.6896 0 3.62436e-06 3.62436e-06 2.02564e-08 0.0346793 23.6142 23.4986 
162 4.5002 4.5002 0 4.81879e-06 4.81879e-06 1.14443e-08 0.0491056 28.9389 28.8241 
202 4.9814 4.9814 0 5.65519e-06 5.65519e-06 -5.43361e-09 0.0593708 32.187 32.0134 
242 5.197 5.197 0 6.06177e-06 6.06177e-06 -4.3447e-09 0.0643015 33.5134 33.3218 
282 5.1424 5.1424 0 5.92649e-06 5.92649e-06 6.04197e-10 0.0625826 33.2242 33.067 
322 4.7178 4.7178 0 5.1808e-06 5.1808e-06 -6.06555e-09 0.0535688 30.2539 30.0693 
362 4.003 4.003 0 4.06272e-06 4.06272e-06 -7.85311e-10 0.0398954 25.7101 25.5952 
402 3.0388 3.0388 0 2.78466e-06 2.78466e-06 2.9494e-09 0.0249455 19.4739 19.3836 
442 1.8924 1.8924 0 1.56455e-06 1.56455e-06 6.22774e-09 0.0118992 12.0273 11.9417 
482 0.7602 0.7602 0 5.41257e-07 5.41257e-07 -1.98856e-09 0.00363143 4.63777 4.60707 
522 0.1486 0.1486 0 6.83225e-08 6.83225e-08 1.50989e-10 0.000710658 0.737294 0.731845 
562 0.0488 0.0488 0 1.15773e-09 1.15773e-09 3.5384e-10 0.000337349 0.166162 0.170641 
602 0.0398 0.0398 0 -4.82515e-09 -4.82515e-09 -6.03383e-10 0.000258745 0.103326 0.103425 
642 0.019 0.019 0 -2.52712e-09 -2.52712e-09 7.72805e-11 9.5271e-05 0.0495905 0.047712 
682 0.012 0.012 0 -2.46615e-09 -2.46615e-09 -4.36833e-10 4.79674e-05 0.0251893 0.0246356 
722 0.003 0.003 0 -3.14008e-10 -3.14008e-10 1.79932e-10 5.57796e-06 0.00533747 0.00522688 
762 0.0002 0.0002 0 -1.04276e-10 -1.04276e-10 -1.19442e-10 1.11164e-06 5.18232e-05 0.000137422 
802 0.009 0.009 0 -1.45471e-09 -1.45471e-09 1.68251e-10 3.04275e-05 0.0220378 0.0216406 
842 0.0192 0.0192 0 -2.4312e-09 -2.4312e-09 -4.16944e-10 9.29231e-05 0.0626638 0.0642479 
882 0.0306 0.0306 0 -3.85923e-09 -3.85923e-09 -3.3702e-10 0.000176646 0.0781993 0.0775148 
922 0.0418 0.0418 0 -2.26248e-09 -2.26248e-09 -4.0658e-10 0.000280469 0.108398 0.108785 
962 0.0888 0.0888 0 2.66885e-08 2.66885e-08 1.64294e-09 0.000515992 0.385916 0.381229 
3 0.476 0.476 0 3.11613e-07 3.11613e-07 -2.64739e-09 0.00215525 2.79387 2.79194 
43 1.4844 1.4844 0 1.18045e-06 1.18045e-06 1.2469e-09 0.00839414 9.47485 9.43054 
83 2.6478 2.6478 0 2.35277e-06 2.35277e-06 -1.1636e-09 0.0200844 16.9676 16.9007 
123 3.6796 3.6796 0 3.6237e-06 3.6237e-06 -5.69001e-09 0.0346023 23.773 23.6597 
163 4.442 4.442 0 4.74585e-06 4.74585e-06 2.27811e-09 0.0483231 28.5503 28.423 
203 4.9672 4.9672 0 5.64299e-06 5.64299e-06 3.08471e-09 0.059233 32.0393 31.8686 
243 5.294 5.294 0 6.19164e-06 6.19164e-06 -1.61363e-09 0.0656794 34.2433 34.0832 
283 5.161 5.161 0 5.9477e-06 5.9477e-06 5.19278e-09 0.0627558 33.2785 33.1696 
323 4.6964 4.6964 0 5.15359e-06 5.15359e-06 -1.93725e-09 0.0531605 30.3668 30.2556 
363 3.9596 3.9596 0 4.01897e-06 4.01897e-06 6.69739e-09 0.0394132 25.5576 25.4501 
403 3.0758 3.0758 0 2.82082e-06 2.82082e-06 -7.88554e-09 0.0250764 19.6956 19.5758 
443 1.8782 1.8782 0 1.53975e-06 1.53975e-06 -1.17414e-09 0.0117499 11.9247 11.8597 
483 0.7144 0.7144 0 5.13244e-07 5.13244e-07 -1.44521e-09 0.00336469 4.37961 4.35635 
523 0.1516 0.1516 0 6.47892e-08 6.47892e-08 1.2396e-11 0.00070382 0.695889 0.699043 
563 0.0494 0.0494 0 -2.43345e-09 -2.43345e-09 2.53121e-10 0.000358521 0.126744 0.127881 
603 0.0398 0.0398 0 -5.0807e-09 -5.0807e-09 -2.569e-10 0.000274378 0.124276 0.124294 
643 0.0208 0.0208 0 -3.73054e-09 -3.73054e-09 -2.82599e-10 0.000109714 0.0439878 0.0438115 
683 0.0142 0.0142 0 -2.11508e-09 -2.11508e-09 6.52517e-10 5.63084e-05 0.0486325 0.049308 
723 0.0046 0.0046 0 -6.12945e-10 -6.12945e-10 -3.25364e-10 9.95968e-06 0.0098647 0.0102349 
763 0.0002 0.0002 0 -5.10143e-11 -5.10143e-11 2.6978e-11 6.03131e-07 -5.21469e-05 2.76397e-05 
803 0.007 0.007 0 -1.01951e-09 -1.01951e-09 4.39671e-11 2.36249e-05 0.0241957 0.0236688 
843 0.0186 0.0186 0 -3.38054e-09 -3.38054e-09 4.0727e-11 9.49868e-05 0.0496776 0.0488775 
883 0.032 0.032 0 -4.11333e-09 -4.11333e-09 2.86804e-10 0.00018569 0.0743694 0.0756201 
923 0.0456 0.0456 0 -2.38631e-09 -2.38631e-09 3.61579e-10 0.000318243 0.127883 0.125277 
963 0.0866 0.0866 0 2.12105e-08 2.12105e-08 -1.23112e-09 0.000498889 0.331276 0.337061 
4 0.4916 0.4916 0 3.24297e-07 3.24297e-07 -1.22396e-09 0.00224003 2.8879 2.87509 
44 1.495 1.495 0 1.18539e-06 1.18539e-06 1.47163e-09 0.00849329 9.43631 9.37547 
84 2.7036 2.7036 0 2.39719e-06 2.39719e-06 -3.22823e-09 0.0205341 17.1758 17.0952 
124 3.7414 3.7414 0 3.69563e-06 3.69563e-06 7.54481e-09 0.0354327 24.0554 23.9206 
164 4.5322 4.5322 0 4.8753e-06 4.8753e-06 -3.00245e-09 0.0496997 29.1421 29.0448 
204 5.0216 5.0216 0 5.7316e-06 5.7316e-06 -3.1567e-10 0.0602423 32.4301 32.3081 
244 5.233 5.233 0 6.12061e-06 6.12061e-06 1.69526e-09 0.0649382 33.7068 33.5368 
284 5.1824 5.1824 0 5.96891e-06 5.96891e-06 5.03602e-09 0.062982 33.3002 33.1865 
324 4.6774 4.6774 0 5.13081e-06 5.13081e-06 7.7181e-09 0.0529161 30.2824 30.1483 
364 3.9134 3.9134 0 3.96715e-06 3.96715e-06 -2.35384e-09 0.0387937 25.4158 25.2979 
404 2.9966 2.9966 0 2.7402e-06 2.7402e-06 1.11895e-09 0.0243252 19.213 19.1268 
444 1.8086 1.8086 0 1.4832e-06 1.4832e-06 1.16219e-09 0.0111114 11.533 11.5028 
484 0.7036 0.7036 0 4.95087e-07 4.95087e-07 -1.14727e-09 0.00328986 4.24886 4.21442 
524 0.1308 0.1308 0 5.58972e-08 5.58972e-08 3.91567e-13 0.000643073 0.606562 0.607638 
564 0.0474 0.0474 0 -1.30045e-09 -1.30045e-09 -9.8732e-10 0.000310244 0.113264 0.111419 
604 0.0358 0.0358 0 -4.35603e-09 -4.35603e-09 -6.78964e-10 0.000231331 0.099777 0.0977973 
644 0.0206 0.0206 0 -3.25789e-09 -3.25789e-09 2.03284e-10 0.000109279 0.0597622 0.0613185 
684 0.0106 0.0106 0 -1.87415e-09 -1.87415e-09 2.88194e-10 4.30968e-05 0.0246805 0.0241624 
724 0.0042 0.0042 0 -5.43309e-10 -5.43309e-10 -2.40105e-11 9.54142e-06 0.0144536 0.0134685 
764 0.0002 0.0002 0 -4.15912e-13 -4.15912e-13 -7.94608e-11 1.35585e-07 0.000271858 0.000437377 
804 0.0108 0.0108 0 -1.52244e-09 -1.52244e-09 -3.22731e-11 3.37485e-05 0.0230262 0.0242422 
844 0.0206 0.0206 0 -2.79327e-09 -2.79327e-09 8.28827e-11 0.000104157 0.0654237 0.0680018 
884 0.0336 0.0336 0 -4.77132e-09 -4.77132e-09 3.085e-10 0.000198699 0.0829435 0.0838995 
924 0.0434 0.0434 0 -1.82911e-09 -1.82911e-09 4.66917e-10 0.00029805 0.121846 0.121795 
964 0.082 0.082 0 2.2223e-08 2.2223e-08 1.01561e-09 0.000472849 0.325786 0.327307 
5 0.512 0.512 0 3.44361e-07 3.44361e-07 -2.70604e-09 0.00228658 3.06719 3.05438 
45 1.5452 1.5452 0 1.22861e-06 1.22861e-06 -5.70494e-09 0.00885077 9.77651 9.73737 
85 2.747 2.747 0 2.44211e-06 2.44211e-06 -1.40252e-10 0.0209811 17.4941 17.366 
125 3.7322 3.7322 0 3.6923e-06 3.6923e-06 -4.13606e-09 0.0354816 24.0147 23.9295 
165 4.5016 4.5016 0 4.85054e-06 4.85054e-06 1.65549e-09 0.0495844 28.9052 28.7864 
205 5.0208 5.0208 0 5.73024e-06 5.73024e-06 -4.03598e-09 0.0602415 32.308 32.1614 
245 5.1846 5.1846 0 6.05361e-06 6.05361e-06 -7.68525e-09 0.0642252 33.3366 33.2078 
285 5.1154 5.1154 0 5.87005e-06 5.87005e-06 1.88512e-09 0.0619226 32.873 32.7174 
325 4.6738 4.6738 0 5.09813e-06 5.09813e-06 6.39081e-09 0.0524684 30.3228 30.1198 
365 3.975 3.975 0 4.01329e-06 4.01329e-06 -4.30844e-10 0.0392926 25.6463 25.5749 
405 2.9562 2.9562 0 2.69763e-06 2.69763e-06 8.77596e-10 0.023869 18.9184 18.8295 
445 1.7974 1.7974 0 1.47235e-06 1.47235e-06 -1.72783e-09 0.0110635 11.5112 11.4628 
485 0.6754 0.6754 0 4.81014e-07 4.81014e-07 -1.20338e-09 0.00317112 4.17354 4.16191 
525 0.1388 0.1388 0 5.98124e-08 5.98124e-08 -5.96094e-10 0.000707826 0.673135 0.671665 
565 0.049 0.049 0 -1.98606e-09 -1.98606e-09 6.81313e-10 0.000345502 0.127775 0.126786 
605 0.033 0.033 0 -4.22758e-09 -4.22758e-09 -9.2154e-10 0.000208394 0.0828822 0.086605 
645 0.0182 0.0182 0 -3.06177e-09 -3.06177e-09 -4.61494e-10 9.96405e-05 0.0566241 0.05643 
685 0.0122 0.0122 0 -2.14363e-09 -2.14363e-09 -2.04419e-10 4.99967e-05 0.0331477 0.0310698 
725 0.0018 0.0018 0 -1.77078e-10 -1.77078e-10 2.55169e-10 3.30168e-06 0.00484889 0.00514175 
765 0.0008 0.0008 0 -5.28784e-11 -5.28784e-11 1.30668e-10 8.69065e-07 0.00124613 0.00133367 
805 0.01 0.01 0 -1.45829e-09 -1.45829e-09 -3.89278e-10 3.64728e-05 0.0375462 0.0370445 
845 0.0228 0.0228 0 -3.71847e-09 -3.71847e-09 -5.69917e-10 0.000113701 0.063297 0.0637578 
885 0.0366 0.0366 0 -3.99986e-09 -3.99986e-09 -9.47234e-10 0.000227697 0.105484 0.105712 
925 0.0424 0.0424 0 -2.28061e-09 -2.28061e-09 4.6054e-10 0.000288769 0.119572 0.121951 
965 0.0972 0.0972 0 2.73379e-08 2.73379e-08 -4.11187e-10 0.00056172 0.402042 0.405721 
6 0.5106 0.5106 0 3.45681e-07 3.45681e-07 5.63997e-10 0.00229689 3.05733 3.04297 
46 1.5542 1.5542 0 1.24641e-06 1.24641e-06 3.88237e-09 0.00902068 9.96619 9.89665 
86 2.719 2.719 0 2.428e-06 2.428e-06 1.05029e-09 0.0208724 17.4483 17.3685 
126 3.7328 3.7328 0 3.69472e-06 3.69472e-06 -6.74768e-09 0.0355574 23.974 23.8644 
166 4.4758 4.4758 0 4.82814e-06 4.82814e-06 2.37896e-09 0.0493069 28.7765 28.6321 
206 5.0248 5.0248 0 5.7407e-06 5.7407e-06 3.08017e-09 0.0603518 32.5662 32.4084 
246 5.2062 5.2062 0 6.0673e-06 6.0673e-06 4.24066e-09 0.0643707 33.7498 33.6129 
286 5.09 5.09 0 5.82849e-06 5.82849e-06 -1.88348e-09 0.0614248 32.8776 32.747 
326 4.6794 4.6794 0 5.10382e-06 5.10382e-06 3.07483e-09 0.0525301 30.0379 29.9114 
366 3.9528 3.9528 0 3.98082e-06 3.98082e-06 1.12912e-08 0.0388736 25.4242 25.3131 
406 2.9582 2.9582 0 2.69207e-06 2.69207e-06 -4.66107e-10 0.0237445 18.921 18.8586 
446 1.8118 1.8118 0 1.46736e-06 1.46736e-06 -3.179e-09 0.011071 11.3887 11.3334 
486 0.6556 0.6556 0 4.51795e-07 4.51795e-07 3.7072e-09 0.00306767 3.94795 3.93353 
526 0.1268 0.1268 0 5.2196e-08 5.2196e-08 -4.51855e-10 0.00062417 0.571386 0.574124 
566 0.0444 0.0444 0 -1.41684e-09 -1.41684e-09 2.52217e-10 0.000300661 0.103772 0.106661 
606 0.0304 0.0304 0 -4.02122e-09 -4.02122e-09 -1.6427e-11 0.000190193 0.07387 0.07417 
646 0.023 0.023 0 -2.6035e-09 -2.6035e-09 -1.33466e-10 0.000112812 0.0620145 0.0582457 
686 0.0114 0.0114 0 -1.8157e-09 -1.8157e-09 4.4781e-10 4.07709e-05 0.0292268 0.0293152 
726 0.0024 0.0024 0 -3.09797e-10 -3.09797e-10 1.80869e-10 4.49014e-06 0.00351844 0.00404664 
766 0.001 0.001 0 -1.25764e-10 -1.25764e-10 -1.6216e-10 1.85344e-06 0.0027326 0.00256634 
806 0.0092 0.0092 0 -1.39477e-09 -1.39477e-09 -4.71951e-10 3.41525e-05 0.0325664 0.0318723 
846 0.0206 0.0206 0 -3.37777e-09 -3.37777e-09 -1.69933e-10 0.000100719 0.0497332 0.0492373 
886 0.0306 0.0306 0 -2.78834e-09 -2.78834e-09 6.33273e-10 0.000187698 0.105127 0.106024 
926 0.0418 0.0418 0 -1.30448e-09 -1.30448e-09 6.40431e-10 0.000274159 0.110438 0.111834 
966 0.098 0.098 0 2.92905e-08 2.92905e-08 -6.14378e-11 0.000547934 0.400035 0.408594 
7 0.5374 0.5374 0 3.65354e-07 3.65354e-07 -3.11226e-09 0.00242972 3.19642 3.17841 
47 1.6014 1.6014 0 1.28681e-06 1.28681e-06 -8.06445e-10 0.00933334 10.2139 10.1581 
87 2.77 2.77 0 2.47561e-06 2.47561e-06 4.12825e-09 0.0213566 17.6335 17.5307 
127 3.7314 3.7314 0 3.70237e-06 3.70237e-06 3.07012e-09 0.0357498 24.0807 23.9837 
167 4.6238 4.6238 0 4.99661e-06 4.99661e-06 -9.55967e-09 0.0511614 29.6278 29.4617 
207 5.0444 5.0444 0 5.78722e-06 5.78722e-06 -2.85917e-09 0.0608875 32.5584 32.4057 
247 5.2082 5.2082 0 6.06104e-06 6.06104e-06 2.09023e-09 0.0643085 33.6992 33.4999 
287 5.107 5.107 0 5.86797e-06 5.86797e-06 -1.15368e-08 0.061874 32.7899 32.6708 
327 4.6384 4.6384 0 5.0617e-06 5.0617e-06 3.30317e-09 0.0520218 29.798 29.6882 
367 3.8892 3.8892 0 3.90899e-06 3.90899e-06 6.25934e-09 0.0380419 24.9097 24.7861 
407 2.8808 2.8808 0 2.61345e-06 2.61345e-06 3.65364e-09 0.0230047 18.4026 18.331 
447 1.7582 1.7582 0 1.42252e-06 1.42252e-06 -1.1809e-09 0.0106313 11.1516 11.0933 
487 0.6494 0.6494 0 4.50748e-07 4.50748e-07 -1.46133e-09 0.00298193 3.92263 3.90338 
527 0.1374 0.1374 0 5.15164e-08 5.15164e-08 6.93897e-10 0.000706358 0.591159 0.590454 
567 0.0462 0.0462 0 -1.86191e-09 -1.86191e-09 1.97008e-10 0.000348104 0.151005 0.152213 
607 0.0316 0.0316 0 -3.87546e-09 -3.87546e-09 1.24817e-10 0.000203533 0.0963347 0.0964658 
647 0.021 0.021 0 -3.24127e-09 -3.24127e-09 -1.10322e-10 0.000116031 0.0666864 0.0661311 
687 0.0088 0.0088 0 -1.46466e-09 -1.46466e-09 9.62379e-11 3.36295e-05 0.023805 0.0244998 
727 0.0018 0.0018 0 -2.80736e-10 -2.80736e-10 1.10108e-11 4.44712e-06 0.0037516 0.0033685 
767 0.0006 0.0006 0 -7.63545e-11 -7.63545e-11 -4.74828e-12 9.97237e-07 5.18238e-05 0.000224769 
807 0.0092 0.0092 0 -1.60059e-09 -1.60059e-09 -3.73072e-11 3.53999e-05 0.0254616 0.0243774 
847 0.017 0.017 0 -2.49112e-09 -2.49112e-09 1.37874e-10 8.58063e-05 0.0471051 0.0483258 
887 0.0294 0.0294 0 -4.3581e-09 -4.3581e-09 2.4136e-10 0.000191403 0.0753157 0.0772938 
927 0.0462 0.0462 0 -3.35778e-09 -3.35778e-09 -2.67815e-10 0.000319115 0.121621 0.127843 
967 0.1 0.1 0 3.28768e-08 3.28768e-08 -9.12932e-10 0.000543624 0.425597 0.427603 
8 0.5844 0.5844 0 3.96449e-07 3.96449e-07 -8.00567e-10 0.00266408 3.46132 3.44319 
48 1.6362 1.6362 0 1.31473e-06 1.31473e-06 -1.71901e-09 0.00960519 10.4511 10.4012 
88 2.7866 2.7866 0 2.50169e-06 2.50169e-06 -7.1998e-09 0.0216917 17.8873 17.8021 
128 3.854 3.854 0 3.84838e-06 3.84838e-06 3.59753e-10 0.0371734 24.7574 24.6616 
168 4.6026 4.6026 0 4.9752e-06 4.9752e-06 -6.8087e-09 0.0508835 29.8503 29.7142 
208 5.0554 5.0554 0 5.77703e-06 5.77703e-06 -4.089e-09 0.0608312 32.5718 32.4311 
248 5.2234 5.2234 0 6.10033e-06 6.10033e-06 -2.91359e-09 0.0647262 33.7181 33.5737 
288 5.0734 5.0734 0 5.81434e-06 5.81434e-06 5.82516e-09 0.0612534 32.8093 32.6568 
328 4.6402 4.6402 0 5.05252e-06 5.05252e-06 -3.9743e-09 0.0519446 29.9017 29.7445 
368 3.8198 3.8198 0 3.82491e-06 3.82491e-06 -7.76496e-10 0.0372914 24.3567 24.2645 
408 2.8608 2.8608 0 2.58271e-06 2.58271e-06 -5.63308e-09 0.0227142 18.2299 18.1172 
448 1.7354 1.7354 0 1.4036e-06 1.4036e-06 -1.46898e-09 0.0103784 11.015 10.9579 
488 0.6404 0.6404 0 4.42006e-07 4.42006e-07 2.84007e-10 0.00296242 3.82375 3.80942 
528 0.1122 0.1122 0 4.16807e-08 4.16807e-08 -1.04601e-09 0.000576185 0.504413 0.506728 
568 0.047 0.047 0 -1.26921e-09 -1.26921e-09 1.02596e-09 0.000306633 0.116173 0.117299 
608 0.0334 0.0334 0 -3.93035e-09 -3.93035e-09 3.51131e-10 0.000211077 0.0884548 0.0918859 
648 0.0184 0.0184 0 -2.42919e-09 -2.42919e-09 -1.51102e-10 9.34525e-05 0.0506399 0.0521337 
688 0.0112 0.0112 0 -1.8061e-09 -1.8061e-09 5.50474e-10 4.05236e-05 0.0215869 0.0224916 
728 0.0018 0.0018 0 -1.37991e-10 -1.37991e-10 8.90511e-11 3.15889e-06 0.00960573 0.0100755 
768 0.001 0.001 0 -2.2537e-10 -2.2537e-10 6.82302e-11 2.84558e-06 0.000557141 0.000625095 
808 0.0096 0.0096 0 -1.72318e-09 -1.72318e-09 -1.81369e-10 3.73477e-05 0.0260194 0.0270702 
848 0.024 0.024 0 -3.53107e-09 -3.53107e-09 3.52491e-10 0.000115857 0.0624023 0.0650543 
888 0.0308 0.0308 0 -4.6144e-09 -4.6144e-09 2.88629e-10 0.000190265 0.0717118 0.0711928 
928 0.0488 0.0488 0 -2.59796e-09 -2.59796e-09 1.48715e-12 0.000341696 0.141704 0.144828 
968 0.1058 0.1058 0 3.81538e-08 3.81538e-08 1.55647e-10 0.000556016 0.475646 0.473928 
9 0.575 0.575 0 3.94701e-07 3.94701e-07 5.75438e-10 0.00260827 3.45133 3.43464 
49 1.6538 1.6538 0 1.3254e-06 1.3254e-06 -1.84339e-09 0.00985961 10.398 10.3486 
89 2.8092 2.8092 0 2.54444e-06 2.54444e-06 -5.83546e-09 0.0220139 18.1535 18.0908 
129 3.8688 3.8688 0 3.85135e-06 3.85135e-06 9.39544e-09 0.0373842 24.8733 24.7724 
169 4.5606 4.5606 0 4.94986e-06 4.94986e-06 -3.76788e-09 0.0507888 29.562 29.4149 
209 5.0852 5.0852 0 5.83029e-06 5.83029e-06 6.21687e-09 0.0613879 32.79 32.6099 
249 5.2188 5.2188 0 6.12056e-06 6.12056e-06 1.09908e-08 0.064941 33.7233 33.5766 
289 5.1126 5.1126 0 5.88635e-06 5.88635e-06 3.54732e-09 0.0619929 32.9427 32.7712 
329 4.6108 4.6108 0 5.0155e-06 5.0155e-06 1.91297e-09 0.0515442 29.5843 29.4296 
369 3.8054 3.8054 0 3.81701e-06 3.81701e-06 -8.15454e-09 0.0369952 24.57 24.4318 
409 2.8674 2.8674 0 2.59264e-06 2.59264e-06 2.937e-09 0.0226621 18.4316 18.3495 
449 1.683 1.683 0 1.35595e-06 1.35595e-06 6.23276e-09 0.010014 10.6864 10.6251 
489 0.6016 0.6016 0 4.22312e-07 4.22312e-07 -3.3118e-09 0.00275202 3.69106 3.6744 
529 0.1136 0.1136 0 4.10619e-08 4.10619e-08 -7.77303e-10 0.000601208 0.509926 0.506104 
569 0.0446 0.0446 0 -2.07425e-09 -2.07425e-09 -3.55768e-10 0.000305088 0.122987 0.125356 
609 0.0322 0.0322 0 -4.26135e-09 -4.26135e-09 -9.14425e-11 0.00020417 0.0875198 0.0875484 
649 0.0222 0.0222 0 -3.61943e-09 -3.61943e-09 -2.48526e-10 0.000108663 0.0443406 0.0449625 
689 0.0106 0.0106 0 -1.44722e-09 -1.44722e-09 2.68327e-10 3.85001e-05 0.0344311 0.0352893 
729 0.0018 0.0018 0 -1.96191e-10 -1.96191e-10 -1.65609e-10 3.11466e-06 0.00457068 0.00438567 
769 0.001 0.001 0 -1.72433e-10 -1.72433e-10 5.14793e-11 2.29995e-06 0.0026036 0.00328499 
809 0.0126 0.0126 0 -1.99843e-09 -1.99843e-09 -3.68229e-10 4.75461e-05 0.0413321 0.0423522 
849 0.0188 0.0188 0 -2.8654e-09 -2.8654e-09 1.25285e-10 9.56125e-05 0.051074 0.0503298 
889 0.0316 0.0316 0 -4.76712e-09 -4.76712e-09 -3.0745e-11 0.000207478 0.0823282 0.0817127 
929 0.0496 0.0496 0 -2.08898e-09 -2.08898e-09 2.77443e-10 0.00036146 0.150185 0.148304 
969 0.1102 0.1102 0 4.03064e-08 4.03064e-08 7.55878e-10 0.00058619 0.491756 0.493012 
10 0.5896 0.5896 0 4.04289e-07 4.04289e-07 -2.54501e-09 0.00273701 3.54089 3.52655 
50 1.7134 1.7134 0 1.3845e-06 1.3845e-06 -4.9325e-09 0.0102 10.9498 10.8955 
90 2.8674 2.8674 0 2.59162e-06 2.59162e-06 4.99097e-09 0.0226595 18.2828 18.1832 
130 3.875 3.875 0 3.86732e-06 3.86732e-06 2.47199e-09 0.0376794 24.7916 24.6943 
170 4.5678 4.5678 0 4.96108e-06 4.96108e-06 7.99529e-09 0.0508747 29.4349 29.294 
210 5.0764 5.0764 0 5.82026e-06 5.82026e-06 8.17798e-09 0.0613199 32.5229 32.4117 
250 5.1886 5.1886 0 6.04737e-06 6.04737e-06 -1.67887e-10 0.0641643 33.5045 33.3479 
290 5.0782 5.0782 0 5.81373e-06 5.81373e-06 -4.52444e-09 0.06122 32.6533 32.5058 
330 4.5928 4.5928 0 4.97396e-06 4.97396e-06 2.55251e-09 0.0510366 29.4242 29.2667 
370 3.856 3.856 0 3.84167e-06 3.84167e-06 1.48165e-09 0.0372019 24.6678 24.523 
410 2.807 2.807 0 2.54082e-06 2.54082e-06 -1.44269e-09 0.0220158 18.0341 17.9536 
450 1.6636 1.6636 0 1.35114e-06 1.35114e-06 -2.22839e-09 0.0098638 10.6707 10.6276 
490 0.5878 0.5878 0 4.05595e-07 4.05595e-07 1.92019e-09 0.00268894 3.58351 3.56568 
530 0.1168 0.1168 0 4.18738e-08 4.18738e-08 -8.72187e-11 0.00062551 0.513161 0.513948 
570 0.0406 0.0406 0 -1.98696e-09 -1.98696e-09 -4.12279e-10 0.000278582 0.116448 0.118018 
610 0.0302 0.0302 0 -3.06555e-09 -3.06555e-09 -7.49668e-11 0.000197522 0.105513 0.105621 
650 0.0246 0.0246 0 -3.2791e-09 -3.2791e-09 -1.40591e-10 0.000127838 0.0806597 0.0806579 
690 0.0106 0.0106 0 -1.59489e-09 -1.59489e-09 -1.03291e-10 4.07399e-05 0.0388166 0.0392393 
730 0.0006 0.0006 0 -1.16605e-10 -1.16605e-10 -9.13329e-11 1.52112e-06 0.000750855 0.0010851 
770 0.0022 0.0022 0 -4.36489e-10 -4.36489e-10 -2.99368e-10 6.24888e-06 0.00728214 0.00829529 
810 0.0104 0.0104 0 -1.40346e-09 -1.40346e-09 -4.25962e-10 3.53076e-05 0.026249 0.0258488 
850 0.0244 0.0244 0 -3.76305e-09 -3.76305e-09 -4.19831e-10 0.000124515 0.0688852 0.0673378 
890 0.0354 0.0354 0 -4.51382e-09 -4.51382e-09 -5.52009e-10 0.000217021 0.0862708 0.0867081 
930 0.0484 0.0484 0 -1.96269e-09 -1.96269e-09 4.31119e-10 0.000343066 0.144683 0.144658 
970 0.111 0.111 0 3.46784e-08 3.46784e-08 3.76713e-10 0.000609505 0.46418 0.465081 
11 0.621 0.621 0 4.3716e-07 4.3716e-07 -2.69411e-09 0.00283656 3.76828 3.74481 
51 1.725 1.725 0 1.39642e-06 1.39642e-06 6.31331e-09 0.0103429 10.9476 10.8862 
91 2.8852 2.8852 0 2.60385e-06 2.60385e-06 -3.96276e-10 0.0229099 18.4111 18.3237 
131 3.866 3.866 0 3.87356e-06 3.87356e-06 6.33089e-09 0.0377675 24.573 24.481 
171 4.6302 4.6302 0 5.04799e-06 5.04799e-06 -5.11433e-09 0.051838 29.8428 29.7361 
211 5.0474 5.0474 0 5.79893e-06 5.79893e-06 -1.50222e-09 0.0611051 32.6253 32.4841 
251 5.2094 5.2094 0 6.05919e-06 6.05919e-06 -2.5824e-09 0.0642884 33.5822 33.4315 
291 5.0556 5.0556 0 5.79611e-06 5.79611e-06 3.74856e-09 0.0610286 32.5132 32.3481 
331 4.6246 4.6246 0 5.01138e-06 5.01138e-06 -5.22546e-09 0.0512904 29.949 29.7883 
371 3.7882 3.7882 0 3.76432e-06 3.76432e-06 1.44755e-08 0.0364462 24.2477 24.1109 
411 2.8008 2.8008 0 2.51695e-06 2.51695e-06 -1.61436e-09 0.0218628 17.8757 17.7859 
451 1.6508 1.6508 0 1.33054e-06 1.33054e-06 -3.64493e-09 0.00966142 10.567 10.5311 
491 0.5564 0.5564 0 3.86977e-07 3.86977e-07 -6.33663e-10 0.00254349 3.42537 3.41622 
531 0.108 0.108 0 3.67993e-08 3.67993e-08 -4.37279e-10 0.000563106 0.47799 0.476505 
571 0.0406 0.0406 0 -1.69591e-09 -1.69591e-09 -1.08524e-10 0.000272915 0.111108 0.108475 
611 0.03 0.03 0 -5.031e-09 -5.031e-09 -1.06869e-10 0.000206786 0.0883032 0.0857105 
651 0.0246 0.0246 0 -4.61063e-09 -4.61063e-09 -4.44314e-10 0.000126324 0.0665613 0.0682326 
691 0.0136 0.0136 0 -1.95952e-09 -1.95952e-09 2.38372e-11 4.83734e-05 0.0416927 0.0406306 
731 0.0016 0.0016 0 -2.08623e-10 -2.08623e-10 5.98889e-11 2.96384e-06 0.00195588 0.00192252 
771 0.0016 0.0016 0 -1.54461e-10 -1.54461e-10 1.35064e-10 2.46028e-06 0.00213078 0.00185611 
811 0.0132 0.0132 0 -2.17035e-09 -2.17035e-09 -2.53645e-11 5.01334e-05 0.0311806 0.0310438 
851 0.0204 0.0204 0 -3.76507e-09 -3.76507e-09 3.83947e-11 0.000113488 0.0617534 0.061096 
891 0.0322 0.0322 0 -4.13705e-09 -4.13705e-09 8.54819e-10 0.000198893 0.0774715 0.0761073 
931 0.0398 0.0398 0 6.61931e-10 6.61931e-10 -6.6724e-10 0.000264682 0.118512 0.123013 
971 0.1254 0.1254 0 4.5873e-08 4.5873e-08 4.8644e-10 0.000662564 0.57246 0.571643 
12 0.6608 0.6608 0 4.59208e-07 4.59208e-07 -1.97953e-09 0.00306281 3.98323 3.96155 
52 1.7494 1.7494 0 1.42851e-06 1.42851e-06 -8.68888e-10 0.0105952 11.1724 11.1021 
92 2.9114 2.9114 0 2.64715e-06 2.64715e-06 -6.7094e-09 0.0231511 18.7321 18.6577 
132 3.8802 3.8802 0 3.90378e-06 3.90378e-06 -4.72873e-09 0.0380783 24.9164 24.8058 
172 4.6698 4.6698 0 5.09621e-06 5.09621e-06 -2.50908e-10 0.0524268 30.0166 29.8998 
212 5.12 5.12 0 5.87596e-06 5.87596e-06 4.48756e-09 0.0619056 33.1603 32.991 
252 5.2516 5.2516 0 6.12919e-06 6.12919e-06 -1.37781e-09 0.0650283 34.0501 33.9242 
292 5.1314 5.1314 0 5.87193e-06 5.87193e-06 5.38115e-10 0.0617713 33.1058 32.9576 
332 4.5396 4.5396 0 4.88688e-06 4.88688e-06 7.74338e-10 0.0499939 29.2708 29.1361 
372 3.7848 3.7848 0 3.76117e-06 3.76117e-06 3.17577e-09 0.0363301 24.3003 24.161 
412 2.7602 2.7602 0 2.47988e-06 2.47988e-06 -3.71164e-09 0.0213347 17.8436 17.7721 
452 1.6048 1.6048 0 1.27965e-06 1.27965e-06 1.11439e-09 0.00933265 10.106 10.0544 
492 0.547 0.547 0 3.68979e-07 3.68979e-07 2.11875e-09 0.00249887 3.22504 3.2183 
532 0.0906 0.0906 0 3.25368e-08 3.25368e-08 -1.53719e-11 0.000481809 0.407721 0.411906 
572 0.0426 0.0426 0 -2.54551e-09 -2.54551e-09 7.03094e-10 0.000288326 0.112227 0.113367 
612 0.0302 0.0302 0 -3.68292e-09 -3.68292e-09 3.50035e-10 0.00017977 0.0867871 0.0879819 
652 0.0182 0.0182 0 -2.84218e-09 -2.84218e-09 -1.02094e-09 8.73709e-05 0.0454742 0.0467793 
692 0.011 0.011 0 -1.67363e-09 -1.67363e-09 3.06326e-10 3.93436e-05 0.0295914 0.0287061 
732 0.0012 0.0012 0 -1.25629e-10 -1.25629e-10 -5.65501e-11 2.13648e-06 0.00580239 0.00603303 
772 0.002 0.002 0 -2.72632e-10 -2.72632e-10 1.06448e-10 3.82196e-06 0.00221583 0.00224785 
812 0.0134 0.0134 0 -2.26069e-09 -2.26069e-09 2.34402e-10 5.21531e-05 0.0437402 0.0415226 
852 0.0236 0.0236 0 -3.33418e-09 -3.33418e-09 1.24311e-10 0.000121177 0.0632315 0.0645351 
892 0.0314 0.0314 0 -2.84868e-09 -2.84868e-09 -6.24954e-10 0.000194199 0.0934727 0.0943266 
932 0.0426 0.0426 0 -1.42571e-09 -1.42571e-09 -1.19182e-10 0.00028434 0.120599 0.118105 
972 0.1182 0.1182 0 4.83207e-08 4.83207e-08 7.48174e-10 0.000614295 0.552186 0.550249 
13 0.673 0.673 0 4.70539e-07 4.70539e-07 -2.11651e-09 0.0031461 4.08925 4.07369 
53 1.7616 1.7616 0 1.4423e-06 1.4423e-06 4.11748e-09 0.0107286 11.2826 11.2419 
93 2.9152 2.9152 0 2.64517e-06 2.64517e-06 -1.20396e-09 0.0234004 18.6393 18.5486 
133 3.9434 3.9434 0 3.9684e-06 3.9684e-06 -2.44762e-09 0.0387231 25.3694 25.253 
173 4.6322 4.6322 0 5.05031e-06 5.05031e-06 7.53467e-09 0.0519747 29.9711 29.8311 
213 5.0878 5.0878 0 5.85047e-06 5.85047e-06 -6.85135e-09 0.061694 32.8452 32.7042 
253 5.2272 5.2272 0 6.11931e-06 6.11931e-06 -4.60582e-09 0.0649224 33.8747 33.7087 
293 4.9976 4.9976 0 5.71324e-06 5.71324e-06 6.24959e-09 0.0601008 32.1183 31.96 
333 4.5362 4.5362 0 4.89658e-06 4.89658e-06 1.46588e-08 0.0500543 29.2926 29.1347 
373 3.7776 3.7776 0 3.74534e-06 3.74534e-06 1.70752e-09 0.0359991 24.4066 24.2951 
413 2.7216 2.7216 0 2.4359e-06 2.4359e-06 -4.54836e-09 0.0210063 17.4898 17.3956 
453 1.5572 1.5572 0 1.24691e-06 1.24691e-06 4.36254e-10 0.0090121 9.95737 9.89605 
493 0.5274 0.5274 0 3.51147e-07 3.51147e-07 7.4345e-10 0.00238089 3.11927 3.10522 
533 0.098 0.098 0 2.76857e-08 2.76857e-08 8.64695e-10 0.000562472 0.381143 0.383167 
573 0.0406 0.0406 0 -2.97111e-09 -2.97111e-09 5.64562e-10 0.000277126 0.0974728 0.0971594 
613 0.0336 0.0336 0 -4.28769e-09 -4.28769e-09 -1.95537e-11 0.000192957 0.0749072 0.0733634 
653 0.023 0.023 0 -3.49393e-09 -3.49393e-09 -1.08743e-10 0.000108225 0.0591288 0.0609576 
693 0.0078 0.0078 0 -1.06157e-09 -1.06157e-09 4.08392e-10 2.7223e-05 0.0289214 0.0290831 
733 0.0008 0.0008 0 -8.62954e-11 -8.62954e-11 -1.65074e-10 1.43642e-06 0.000972361 0.00130642 
773 0.0026 0.0026 0 -3.20494e-10 -3.20494e-10 9.84039e-11 5.0634e-06 0.00280122 0.00336058 
813 0.0122 0.0122 0 -1.83532e-09 -1.83532e-09 5.62962e-11 3.96915e-05 0.0224452 0.023586 
853 0.0228 0.0228 0 -2.65551e-09 -2.65551e-09 6.26201e-10 0.000110641 0.0661951 0.0672363 
893 0.0338 0.0338 0 -3.23427e-09 -3.23427e-09 -9.39779e-10 0.000207082 0.095434 0.0989069 
933 0.0442 0.0442 0 -1.31084e-09 -1.31084e-09 4.78424e-10 0.000292511 0.120055 0.119548 
973 0.1284 0.1284 0 5.19007e-08 5.19007e-08 -1.94928e-10 0.000638399 0.611737 0.610149 
14 0.691 0.691 0 4.9185e-07 4.9185e-07 1.53886e-09 0.00321252 4.20558 4.18094 
54 1.8174 1.8174 0 1.48249e-06 1.48249e-06 -2.0788e-09 0.0110835 11.4972 11.4565 
94 2.9834 2.9834 0 2.7216e-06 2.7216e-06 -5.75478e-09 0.0239483 19.1147 19.043 
134 3.9374 3.9374 0 3.9765e-06 3.9765e-06 1.14834e-09 0.0388482 25.4715 25.3276 
174 4.6746 4.6746 0 5.11637e-06 5.11637e-06 -9.51297e-09 0.0527639 29.9883 29.8452 
214 5.1266 5.1266 0 5.90075e-06 5.90075e-06 -9.34699e-09 0.0622202 33.0067 32.8714 
254 5.1448 5.1448 0 6.0118e-06 6.0118e-06 -2.58162e-09 0.0637809 33.1658 33.048 
294 5.0094 5.0094 0 5.71568e-06 5.71568e-06 2.51089e-09 0.060049 32.5763 32.3924 
334 4.4774 4.4774 0 4.81536e-06 4.81536e-06 1.8266e-09 0.0491908 28.8807 28.7211 
374 3.7274 3.7274 0 3.67409e-06 3.67409e-06 1.76944e-09 0.0353538 23.9308 23.8332 
414 2.7162 2.7162 0 2.42511e-06 2.42511e-06 -2.95091e-09 0.0207787 17.4096 17.3189 
454 1.5268 1.5268 0 1.20979e-06 1.20979e-06 1.92781e-10 0.00880231 9.62247 9.56693 
494 0.4956 0.4956 0 3.30175e-07 3.30175e-07 -5.72572e-10 0.00221799 2.91262 2.90481 
534 0.1022 0.1022 0 3.14434e-08 3.14434e-08 5.37988e-10 0.000548935 0.410291 0.417383 
574 0.0408 0.0408 0 -4.38541e-10 -4.38541e-10 -8.60968e-10 0.000262156 0.11539 0.11459 
614 0.034 0.034 0 -5.35889e-09 -5.35889e-09 -6.41588e-10 0.000213199 0.0855972 0.0857751 
654 0.023 0.023 0 -3.77749e-09 -3.77749e-09 1.9208e-10 0.000112349 0.0615387 0.0640845 
694 0.0102 0.0102 0 -1.82797e-09 -1.82797e-09 1.91983e-10 3.63504e-05 0.0243252 0.0250037 
734 0.0006 0.0006 0 -1.09356e-11 -1.09356e-11 0 1.16583e-07 6.89674e-20 6.89674e-20 
774 0.0026 0.0026 0 -3.44365e-10 -3.44365e-10 6.09782e-11 5.43225e-06 0.00576684 0.0053958 
814 0.0128 0.0128 0 -2.20488e-09 -2.20488e-09 -2.10811e-10 5.38874e-05 0.0413877 0.041571 
854 0.0258 0.0258 0 -4.52311e-09 -4.52311e-09 1.49024e-11 0.000141277 0.0735543 0.0730236 
894 0.0326 0.0326 0 -3.57884e-09 -3.57884e-09 1.28705e-09 0.000205153 0.0831161 0.0822771 