ITEM: TIMESTEP
25000
ITEM: NUMBER OF SURFS
1000
ITEM: BOX BOUNDS oo rr pp
0 0.3
0 0.3
-0.5 0.5
ITEM: SURFS id f_4[1] f_4[2] f_4[3] f_4[4] f_4[5] f_4[6] f_4[7] f_4[8] f_4[9] 
1 0.5328 0.5328 0 2.98414e-06 2.98414e-06 2.0677e-08 0.0259521 27.1528 27.4614 
41 1.4992 1.4992 0 1.09505e-05 1.09505e-05 6.14383e-09 0.0862164 87.1142 87.566 
81 2.6466 2.6466 0 2.20227e-05 2.20227e-05 7.54635e-08 0.195067 157.909 158.665 
121 3.724 3.724 0 3.45809e-05 3.45809e-05 8.09031e-08 0.336081 224.353 225.239 
161 4.5358 4.5358 0 4.58604e-05 4.58604e-05 1.28114e-07 0.469717 273.152 274.498 
201 5.0846 5.0846 0 5.4419e-05 5.4419e-05 -1.7562e-08 0.572782 305.069 306.357 
241 5.3842 5.3842 0 5.91685e-05 5.91685e-05 1.39696e-08 0.627685 324.169 326.14 
281 5.18 5.18 0 5.61284e-05 5.61284e-05 5.07436e-08 0.593459 311.685 313.688 
321 4.8018 4.8018 0 4.99422e-05 4.99422e-05 -1.05833e-07 0.519011 287.824 289.383 
361 4.0914 4.0914 0 3.94795e-05 3.94795e-05 -3.13288e-08 0.393602 245.864 246.456 
401 3.136 3.136 0 2.74478e-05 2.74478e-05 -8.14366e-08 0.253468 188.884 189.621 
441 1.9782 1.9782 0 1.53189e-05 1.53189e-05 3.26732e-08 0.126496 116.11 116.694 
481 0.8928 0.8928 0 5.82427e-06 5.82427e-06 -7.74682e-08 0.0446425 49.5442 49.8658 
521 0.2376 0.2376 0 9.79534e-07 9.79534e-07 -1.58494e-08 0.0116972 10.1326 10.4263 
561 0.0964 0.0964 0 9.17182e-08 9.17182e-08 -1.37818e-08 0.00569938 2.7181 2.93721 
601 0.0464 0.0464 0 2.81064e-09 2.81064e-09 -1.08982e-08 0.00259126 1.5352 1.62056 
641 0.0258 0.0258 0 -3.13525e-08 -3.13525e-08 -6.88226e-09 0.00135476 0.77449 0.76253 
681 0.0114 0.0114 0 -1.66027e-08 -1.66027e-08 3.99723e-09 0.000405991 0.297578 0.303578 
721 0.0026 0.0026 0 -3.1848e-09 -3.1848e-09 1.90807e-09 4.99141e-05 0.0498968 0.0467361 
761 0.0004 0.0004 0 -1.40284e-09 -1.40284e-09 3.90966e-11 1.37993e-05 0.0115694 0.0147719 
801 0.0088 0.0088 0 -1.18149e-08 -1.18149e-08 3.08177e-09 0.00027582 0.217413 0.227722 
841 0.0248 0.0248 0 -3.53049e-08 -3.53049e-08 -7.04017e-09 0.0010586 0.564642 0.601269 
881 0.0404 0.0404 0 -1.57451e-08 -1.57451e-08 -5.5163e-09 0.00208969 1.3025 1.32851 
921 0.074 0.074 0 4.13447e-08 4.13447e-08 6.40095e-09 0.00421208 2.25665 2.35536 
961 0.1422 0.1422 0 3.45854e-07 3.45854e-07 1.25008e-08 0.00809923 4.92896 5.11028 
2 0.5584 0.5584 0 3.17547e-06 3.17547e-06 -1.39146e-09 0.0270948 28.3147 28.7147 
42 1.4744 1.4744 0 1.07587e-05 1.07587e-05 2.64523e-08 0.0849552 85.1035 85.4785 
82 2.7092 2.7092 0 2.25961e-05 2.25961e-05 7.26543e-09 0.19963 160.793 161.09 
122 3.7336 3.7336 0 3.47527e-05 3.47527e-05 2.37025e-08 0.338676 224.006 224.709 
162 4.5682 4.5682 0 4.63747e-05 4.63747e-05 -6.11371e-08 0.47547 275.826 277.024 
202 5.1066 5.1066 0 5.47745e-05 5.47745e-05 3.83525e-08 0.575795 308.13 309.611 
242 5.3372 5.3372 0 5.87695e-05 5.87695e-05 -2.87874e-09 0.623463 319.967 321.404 
282 5.271 5.271 0 5.73928e-05 5.73928e-05 -3.87317e-08 0.606623 317.693 319.033 
322 4.841 4.841 0 5.03186e-05 5.03186e-05 -1.38864e-08 0.52321 288.67 289.653 
362 4.0922 4.0922 0 3.92735e-05 3.92735e-05 -1.4341e-08 0.391583 244.726 245.95 
402 3.1078 3.1078 0 2.70455e-05 2.70455e-05 -4.21148e-08 0.249125 186.678 187.196 
442 1.9598 1.9598 0 1.51492e-05 1.51492e-05 -2.13862e-08 0.123681 115.462 116.125 
482 0.8618 0.8618 0 5.51709e-06 5.51709e-06 -1.25396e-08 0.0432104 46.5718 47.1387 
522 0.245 0.245 0 9.27533e-07 9.27533e-07 -6.95816e-09 0.0123136 10.0569 10.4048 
562 0.0946 0.0946 0 1.00909e-07 1.00909e-07 -1.15269e-08 0.00545245 2.8981 3.11619 
602 0.0538 0.0538 0 -3.04895e-08 -3.04895e-08 9.27688e-09 0.00318889 1.48972 1.58916 
642 0.035 0.035 0 -2.76071e-08 -2.76071e-08 -3.73465e-09 0.00166456 1.11509 1.17515 
682 0.0134 0.0134 0 -1.62961e-08 -1.62961e-08 -1.25222e-11 0.000518876 0.510973 0.53102 
722 0.0026 0.0026 0 -4.27885e-09 -4.27885e-09 6.76414e-11 6.66456e-05 0.0598518 0.0672872 
762 0.001 0.001 0 -2.90235e-09 -2.90235e-09 -3.67318e-10 3.04139e-05 0.0124098 0.0134285 
802 0.0086 0.0086 0 -1.25738e-08 -1.25738e-08 -2.36388e-09 0.000301785 0.350857 0.372548 
842 0.0238 0.0238 0 -2.13549e-08 -2.13549e-08 9.22821e-09 0.00100857 0.699858 0.71133 
882 0.0392 0.0392 0 -1.60029e-08 -1.60029e-08 1.06553e-08 0.00212249 1.20499 1.27854 
922 0.0738 0.0738 0 1.87402e-08 1.87402e-08 -3.1831e-08 0.00431748 2.14139 2.26485 
962 0.1606 0.1606 0 3.94848e-07 3.94848e-07 2.82753e-09 0.00909319 5.70936 5.96414 
3 0.566 0.566 0 3.24862e-06 3.24862e-06 -1.89525e-08 0.0274633 28.8937 29.3369 
43 1.565 1.565 0 1.14982e-05 1.14982e-05 5.05322e-08 0.0901718 90.862 91.4436 
83 2.7108 2.7108 0 2.2744e-05 2.2744e-05 4.35691e-08 0.201361 162.751 163.818 
123 3.7476 3.7476 0 3.49754e-05 3.49754e-05 9.30516e-08 0.340645 226.119 227.275 
163 4.558 4.558 0 4.61925e-05 4.61925e-05 -6.02614e-08 0.473955 271.731 272.811 
203 5.0744 5.0744 0 5.45314e-05 5.45314e-05 1.39226e-08 0.573342 307.556 308.834 
243 5.4224 5.4224 0 5.97359e-05 5.97359e-05 2.29908e-08 0.63372 327.289 328.718 
283 5.2512 5.2512 0 5.72238e-05 5.72238e-05 6.46906e-09 0.604172 317.048 318.312 
323 4.8186 4.8186 0 5.00414e-05 5.00414e-05 8.76891e-08 0.519234 290.09 291.445 
363 3.9816 3.9816 0 3.83309e-05 3.83309e-05 -4.89544e-08 0.380867 241.27 242.45 
403 3.137 3.137 0 2.73154e-05 2.73154e-05 -7.32008e-08 0.250749 188.18 188.948 
443 1.959 1.959 0 1.50495e-05 1.50495e-05 7.34996e-08 0.123328 115.125 115.45 
483 0.8036 0.8036 0 5.16082e-06 5.16082e-06 -6.59132e-09 0.0403549 43.8044 44.244 
523 0.2352 0.2352 0 8.34508e-07 8.34508e-07 1.3223e-08 0.0122165 9.30141 9.61498 
563 0.094 0.094 0 7.54758e-08 7.54758e-08 -1.22999e-08 0.00551121 2.59737 2.71835 
603 0.0566 0.0566 0 -9.54657e-09 -9.54657e-09 9.7389e-09 0.00329106 2.00407 2.09098 
643 0.0362 0.0362 0 -4.36237e-08 -4.36237e-08 4.65902e-09 0.00179768 1.01393 1.07736 
683 0.0128 0.0128 0 -1.63935e-08 -1.63935e-08 -1.69752e-10 0.000508061 0.401269 0.41213 
723 0.0024 0.0024 0 -4.2247e-09 -4.2247e-09 -2.6342e-09 5.87502e-05 0.0381357 0.0366151 
763 0.0006 0.0006 0 -1.559e-09 -1.559e-09 -3.32829e-11 1.75569e-05 0.00467986 0.00631184 
803 0.0076 0.0076 0 -1.087e-08 -1.087e-08 4.7935e-09 0.000244923 0.234993 0.252049 
843 0.0202 0.0202 0 -2.46901e-08 -2.46901e-08 -4.8768e-09 0.000946947 0.640025 0.676625 
883 0.0422 0.0422 0 -1.59357e-08 -1.59357e-08 8.19397e-10 0.00231041 1.34665 1.42934 
923 0.08 0.08 0 3.87166e-08 3.87166e-08 3.64991e-09 0.00462579 2.18641 2.37098 
963 0.154 0.154 0 3.75657e-07 3.75657e-07 1.42041e-08 0.00879562 5.44194 5.70122 
4 0.5874 0.5874 0 3.42809e-06 3.42809e-06 1.79765e-08 0.0287069 30.5329 30.9699 
44 1.5584 1.5584 0 1.1514e-05 1.1514e-05 -1.46458e-08 0.0898514 90.7363 90.9546 
84 2.733 2.733 0 2.29943e-05 2.29943e-05 -4.05832e-08 0.203963 164.04 164.55 
124 3.788 3.788 0 3.54827e-05 3.54827e-05 -3.63568e-08 0.346469 228.468 229.129 
164 4.6372 4.6372 0 4.71942e-05 4.71942e-05 4.11504e-08 0.484694 279.683 281.19 
204 5.1594 5.1594 0 5.56704e-05 5.56704e-05 -8.6565e-08 0.586235 310.404 312.205 
244 5.365 5.365 0 5.90515e-05 5.90515e-05 -9.41014e-09 0.626529 324.016 325.03 
284 5.2964 5.2964 0 5.77071e-05 5.77071e-05 3.02259e-08 0.6095 319.558 321.003 
324 4.7954 4.7954 0 4.96996e-05 4.96996e-05 4.09761e-08 0.514806 289.871 291.566 
364 3.995 3.995 0 3.85036e-05 3.85036e-05 -8.57352e-08 0.380965 243.453 244.124 
404 3.0566 3.0566 0 2.64882e-05 2.64882e-05 5.78198e-08 0.243773 183.374 184.164 
444 1.8914 1.8914 0 1.44881e-05 1.44881e-05 -2.7109e-08 0.117036 110.669 111.192 
484 0.7994 0.7994 0 5.09491e-06 5.09491e-06 -4.10072e-08 0.0398148 43.4367 43.7981 
524 0.2208 0.2208 0 7.68013e-07 7.68013e-07 3.1204e-09 0.0114922 8.61717 8.9335 
564 0.092 0.092 0 9.44377e-08 9.44377e-08 6.3332e-09 0.00529005 2.74566 2.90325 
604 0.05 0.05 0 -2.17383e-08 -2.17383e-08 -9.76281e-09 0.00283774 1.46919 1.51919 
644 0.0318 0.0318 0 -3.68556e-08 -3.68556e-08 -5.66309e-09 0.00149275 0.757915 0.78167 
684 0.014 0.014 0 -1.56896e-08 -1.56896e-08 4.23371e-09 0.000498951 0.475204 0.498507 
724 0.003 0.003 0 -4.51339e-09 -4.51339e-09 -1.66816e-09 7.29014e-05 0.105556 0.120808 
764 0.0008 0.0008 0 -1.66358e-09 -1.66358e-09 -5.86594e-11 2.35876e-05 0.0443927 0.0382816 
804 0.0092 0.0092 0 -1.56138e-08 -1.56138e-08 -1.13988e-10 0.000338606 0.289461 0.299873 
844 0.025 0.025 0 -2.64269e-08 -2.64269e-08 1.09665e-08 0.00110331 0.67686 0.712644 
884 0.0462 0.0462 0 -2.02746e-08 -2.02746e-08 1.33581e-08 0.00241388 1.33623 1.42055 
924 0.0776 0.0776 0 5.24484e-08 5.24484e-08 4.09402e-09 0.00440992 2.39461 2.50398 
964 0.1566 0.1566 0 4.21366e-07 4.21366e-07 -3.50265e-08 0.0087211 5.68256 5.96882 
5 0.6246 0.6246 0 3.71282e-06 3.71282e-06 -1.65708e-08 0.0299196 33.0319 33.3515 
45 1.6268 1.6268 0 1.17893e-05 1.17893e-05 -7.37852e-08 0.094211 93.1828 93.8447 
85 2.7994 2.7994 0 2.359e-05 2.359e-05 -2.35931e-09 0.210414 166.709 167.163 
125 3.809 3.809 0 3.5794e-05 3.5794e-05 -3.23182e-08 0.350163 229.114 230.326 
165 4.5924 4.5924 0 4.68735e-05 4.68735e-05 4.24826e-08 0.482944 276.215 277.356 
205 5.169 5.169 0 5.57229e-05 5.57229e-05 -7.21973e-08 0.587078 309.995 311.543 
245 5.358 5.358 0 5.88727e-05 5.88727e-05 -3.22456e-08 0.624615 322.365 324.047 
285 5.2194 5.2194 0 5.65161e-05 5.65161e-05 -5.97613e-08 0.596909 314.352 315.708 
325 4.7528 4.7528 0 4.93578e-05 4.93578e-05 4.84821e-08 0.511936 284.941 285.744 
365 4.0368 4.0368 0 3.86692e-05 3.86692e-05 -2.10417e-08 0.383404 243.815 244.974 
405 3.0258 3.0258 0 2.61634e-05 2.61634e-05 -6.59802e-08 0.238187 181.374 182.101 
445 1.8826 1.8826 0 1.43824e-05 1.43824e-05 -5.36703e-08 0.116973 110.99 111.357 
485 0.7912 0.7912 0 4.98919e-06 4.98919e-06 2.82883e-08 0.0394449 43.4209 43.8262 
525 0.2198 0.2198 0 8.07054e-07 8.07054e-07 -1.02648e-08 0.0112088 9.00553 9.26076 
565 0.0914 0.0914 0 6.78369e-08 6.78369e-08 6.08149e-09 0.00556989 2.81129 2.98743 
605 0.0502 0.0502 0 -2.56786e-08 -2.56786e-08 -4.94333e-09 0.00284823 1.42615 1.56947 
645 0.0258 0.0258 0 -1.57062e-08 -1.57062e-08 4.08574e-09 0.00115449 0.826827 0.886633 
685 0.0088 0.0088 0 -1.34021e-08 -1.34021e-08 -4.22569e-09 0.000331451 0.204347 0.19729 
725 0.0016 0.0016 0 -1.95819e-09 -1.95819e-09 2.22924e-10 3.53226e-05 0.0508805 0.0474824 
765 0.001 0.001 0 -1.90514e-09 -1.90514e-09 -9.02482e-10 2.39979e-05 0.0166914 0.0149785 
805 0.0108 0.0108 0 -1.91822e-08 -1.91822e-08 -6.03366e-09 0.000367349 0.238956 0.231399 
845 0.0222 0.0222 0 -2.06681e-08 -2.06681e-08 -5.07486e-09 0.000991476 0.679377 0.698412 
885 0.0484 0.0484 0 -3.34152e-08 -3.34152e-08 -5.81532e-10 0.00265408 1.17109 1.2639 
925 0.078 0.078 0 3.47755e-08 3.47755e-08 1.25107e-08 0.00449691 2.16276 2.28512 
965 0.1688 0.1688 0 4.81277e-07 4.81277e-07 -2.03435e-08 0.00910059 6.16284 6.43146 
6 0.6216 0.6216 0 3.69999e-06 3.69999e-06 7.62649e-09 0.0301899 33.1058 33.509 
46 1.613 1.613 0 1.20764e-05 1.20764e-05 3.19942e-08 0.094896 95.3034 95.8194 
86 2.786 2.786 0 2.35806e-05 2.35806e-05 9.18833e-08 0.210632 165.767 166.293 
126 3.8052 3.8052 0 3.58226e-05 3.58226e-05 -4.66846e-08 0.349633 230.12 231.115 
166 4.5792 4.5792 0 4.6736e-05 4.6736e-05 -5.05758e-09 0.480623 274.355 275.57 
206 5.1774 5.1774 0 5.58023e-05 5.58023e-05 -2.5846e-08 0.587385 311.921 313.58 
246 5.3472 5.3472 0 5.86356e-05 5.86356e-05 4.90551e-08 0.622096 322.419 324.55 
286 5.2366 5.2366 0 5.66128e-05 5.66128e-05 -8.25992e-08 0.597788 313.463 315.287 
326 4.7632 4.7632 0 4.93307e-05 4.93307e-05 -1.29152e-08 0.510639 286.681 288.264 
366 4.0118 4.0118 0 3.83266e-05 3.83266e-05 -2.34545e-08 0.380003 242.562 243.647 
406 3.0104 3.0104 0 2.59327e-05 2.59327e-05 1.2145e-08 0.236546 179.609 180.5 
446 1.8518 1.8518 0 1.40577e-05 1.40577e-05 7.84086e-08 0.113905 107.77 108.06 
486 0.755 0.755 0 4.74218e-06 4.74218e-06 4.0047e-08 0.0375105 41.0807 41.6382 
526 0.2084 0.2084 0 7.20001e-07 7.20001e-07 4.82476e-09 0.0105418 8.0555 8.23597 
566 0.0866 0.0866 0 7.03142e-08 7.03142e-08 -4.47829e-09 0.00497673 2.49848 2.66933 
606 0.0458 0.0458 0 -2.67707e-08 -2.67707e-08 -3.91227e-10 0.0025104 1.18515 1.25269 
646 0.032 0.032 0 -3.40177e-08 -3.40177e-08 -4.40101e-09 0.00157408 0.992494 1.0318 
686 0.0112 0.0112 0 -1.42167e-08 -1.42167e-08 5.96039e-09 0.00041196 0.314153 0.340261 
726 0.0014 0.0014 0 -2.16341e-09 -2.16341e-09 -2.18738e-10 3.51276e-05 0.0122325 0.0119542 
766 0.0004 0.0004 0 -1.85506e-09 -1.85506e-09 -1.55152e-10 1.77097e-05 0.0088052 0.0103204 
806 0.0094 0.0094 0 -1.50203e-08 -1.50203e-08 -2.32536e-09 0.000342322 0.33314 0.358153 
846 0.021 0.021 0 -2.34171e-08 -2.34171e-08 -8.68569e-10 0.000904678 0.513477 0.560887 
886 0.044 0.044 0 -2.83299e-08 -2.83299e-08 9.05689e-09 0.00243028 1.24224 1.33773 
926 0.08 0.08 0 4.09912e-08 4.09912e-08 -1.3607e-08 0.00463803 2.33465 2.42231 
966 0.1754 0.1754 0 4.8413e-07 4.8413e-07 2.39243e-08 0.00954087 6.12528 6.4216 
7 0.642 0.642 0 3.82778e-06 3.82778e-06 4.30919e-08 0.0315223 33.2729 33.6433 
47 1.6774 1.6774 0 1.25831e-05 1.25831e-05 3.04531e-08 0.0992158 98.392 98.6574 
87 2.845 2.845 0 2.39381e-05 2.39381e-05 -6.89782e-08 0.215863 168.814 169.623 
127 3.7774 3.7774 0 3.56482e-05 3.56482e-05 6.88938e-08 0.349499 228.6 229.654 
167 4.7198 4.7198 0 4.83422e-05 4.83422e-05 -2.16647e-08 0.497843 284.045 285.51 
207 5.1982 5.1982 0 5.60138e-05 5.60138e-05 -3.57053e-08 0.589615 315.729 317.031 
247 5.3496 5.3496 0 5.90574e-05 5.90574e-05 -2.26416e-09 0.62662 318.607 320.24 
287 5.2498 5.2498 0 5.70215e-05 5.70215e-05 -2.72847e-08 0.601868 315.884 317.427 
327 4.7352 4.7352 0 4.87322e-05 4.87322e-05 -4.00532e-08 0.503829 285.426 286.62 
367 3.9632 3.9632 0 3.76864e-05 3.76864e-05 6.72383e-09 0.372843 238.348 238.987 
407 2.9406 2.9406 0 2.53126e-05 2.53126e-05 3.7019e-08 0.229471 176.4 177.156 
447 1.8332 1.8332 0 1.39025e-05 1.39025e-05 -6.72758e-08 0.111476 107.585 108.242 
487 0.7366 0.7366 0 4.62457e-06 4.62457e-06 -3.44071e-08 0.0362679 40.0067 40.4546 
527 0.2074 0.2074 0 6.81987e-07 6.81987e-07 1.3247e-09 0.0107094 8.05123 8.35051 
567 0.0848 0.0848 0 3.82565e-08 3.82565e-08 1.16299e-08 0.00508765 2.46416 2.58128 
607 0.0502 0.0502 0 -2.52007e-08 -2.52007e-08 9.36581e-09 0.00267219 1.37293 1.39343 
647 0.0256 0.0256 0 -2.90088e-08 -2.90088e-08 1.22746e-08 0.00120136 0.761575 0.788762 
687 0.0112 0.0112 0 -1.68569e-08 -1.68569e-08 5.31632e-10 0.000426484 0.40081 0.431678 
727 0.0018 0.0018 0 -6.26263e-09 -6.26263e-09 -8.29811e-10 7.93773e-05 0.0513143 0.0530711 
767 0.0014 0.0014 0 -2.9793e-09 -2.9793e-09 -1.92387e-09 3.7803e-05 0.0501441 0.0546907 
807 0.0098 0.0098 0 -1.56203e-08 -1.56203e-08 4.73068e-09 0.000327086 0.226512 0.237252 
847 0.0242 0.0242 0 -2.16651e-08 -2.16651e-08 1.99598e-09 0.0010974 0.744944 0.773499 
887 0.0454 0.0454 0 -2.49316e-08 -2.49316e-08 4.0857e-09 0.00238753 1.17981 1.25739 
927 0.0868 0.0868 0 3.03445e-08 3.03445e-08 1.60224e-08 0.00519211 2.48835 2.59571 
967 0.1756 0.1756 0 5.04121e-07 5.04121e-07 2.24347e-10 0.00944519 6.61603 6.94508 
8 0.6722 0.6722 0 3.96161e-06 3.96161e-06 -9.4826e-10 0.0325718 34.6677 35.0238 
48 1.6772 1.6772 0 1.2707e-05 1.2707e-05 4.35692e-08 0.0999244 99.0924 99.5534 
88 2.8094 2.8094 0 2.38756e-05 2.38756e-05 -5.79823e-08 0.214823 168.292 169.085 
128 3.9116 3.9116 0 3.69909e-05 3.69909e-05 -4.49281e-08 0.363195 235.404 236.299 
168 4.7192 4.7192 0 4.82811e-05 4.82811e-05 -7.17043e-09 0.498996 283.166 284.122 
208 5.1606 5.1606 0 5.56339e-05 5.56339e-05 3.99953e-08 0.586438 310.891 312.766 
248 5.3382 5.3382 0 5.87622e-05 5.87622e-05 3.88297e-08 0.623496 322.781 324.412 
288 5.2188 5.2188 0 5.65807e-05 5.65807e-05 1.07892e-07 0.596827 312.516 314.225 
328 4.7684 4.7684 0 4.89751e-05 4.89751e-05 -3.37339e-08 0.505907 286.848 288.269 
368 3.8892 3.8892 0 3.69573e-05 3.69573e-05 -3.97482e-08 0.365779 232.529 233.444 
408 2.929 2.929 0 2.50007e-05 2.50007e-05 6.86639e-08 0.227772 174.627 175.243 
448 1.797 1.797 0 1.34533e-05 1.34533e-05 2.66833e-08 0.109116 104.17 104.707 
488 0.7484 0.7484 0 4.66607e-06 4.66607e-06 5.0629e-09 0.0367385 40.3313 40.6089 
528 0.194 0.194 0 6.4356e-07 6.4356e-07 -7.92712e-09 0.0102434 7.4257 7.6992 
568 0.0834 0.0834 0 5.4591e-08 5.4591e-08 3.98367e-09 0.004773 2.33404 2.47239 
608 0.0426 0.0426 0 -1.39323e-08 -1.39323e-08 -7.22219e-10 0.00246329 1.42256 1.48995 
648 0.0264 0.0264 0 -2.59496e-08 -2.59496e-08 5.98988e-09 0.00127712 0.948569 0.960607 
688 0.011 0.011 0 -1.44445e-08 -1.44445e-08 4.00218e-09 0.00039586 0.362504 0.368445 
728 0.0028 0.0028 0 -5.04531e-09 -5.04531e-09 3.74651e-09 7.2992e-05 0.0673084 0.0738735 
768 0.0016 0.0016 0 -4.35112e-09 -4.35112e-09 -1.62932e-10 5.0955e-05 0.0325257 0.0390916 
808 0.0094 0.0094 0 -1.01616e-08 -1.01616e-08 2.14403e-10 0.000308331 0.301476 0.32032 
848 0.0248 0.0248 0 -2.9541e-08 -2.9541e-08 -2.62707e-09 0.0011917 0.7367 0.765873 
888 0.0448 0.0448 0 -2.85703e-08 -2.85703e-08 5.15258e-09 0.00258871 1.33194 1.42886 
928 0.0814 0.0814 0 4.70214e-08 4.70214e-08 1.9028e-08 0.00489995 2.56674 2.68781 
968 0.192 0.192 0 5.85558e-07 5.85558e-07 3.12082e-08 0.0102914 7.21762 7.52102 
9 0.6704 0.6704 0 4.10052e-06 4.10052e-06 1.45631e-08 0.0331466 36.1816 36.4823 
49 1.7528 1.7528 0 1.30928e-05 1.30928e-05 -2.0116e-08 0.105143 101.603 101.999 
89 2.835 2.835 0 2.42401e-05 2.42401e-05 -3.99955e-08 0.217642 171.678 172.396 
129 3.9236 3.9236 0 3.70933e-05 3.70933e-05 2.81799e-08 0.365624 235.298 236.134 
169 4.6666 4.6666 0 4.79014e-05 4.79014e-05 9.00506e-08 0.494806 281.303 282.79 
209 5.1782 5.1782 0 5.60959e-05 5.60959e-05 -4.00042e-08 0.591227 312.303 313.869 
249 5.3468 5.3468 0 5.91459e-05 5.91459e-05 8.24227e-08 0.627559 321.399 323.244 
289 5.2266 5.2266 0 5.65342e-05 5.65342e-05 1.44923e-07 0.595744 317.788 319.664 
329 4.6916 4.6916 0 4.82995e-05 4.82995e-05 1.04772e-07 0.498038 282.879 284.089 
369 3.8918 3.8918 0 3.68521e-05 3.68521e-05 6.14171e-08 0.36377 233.073 234.137 
409 2.9466 2.9466 0 2.5105e-05 2.5105e-05 1.73078e-08 0.227416 176.205 176.739 
449 1.7624 1.7624 0 1.32094e-05 1.32094e-05 1.09697e-08 0.106218 102.935 103.341 
489 0.7106 0.7106 0 4.34963e-06 4.34963e-06 3.7246e-08 0.0350271 37.5187 38.0227 
529 0.1964 0.1964 0 6.26108e-07 6.26108e-07 -1.25692e-09 0.0103362 7.35144 7.65686 
569 0.092 0.092 0 5.67542e-08 5.67542e-08 2.46481e-08 0.0053267 2.56267 2.71038 
609 0.0498 0.0498 0 -2.84639e-08 -2.84639e-08 2.27468e-09 0.00280987 1.34926 1.40691 
649 0.0258 0.0258 0 -2.40649e-08 -2.40649e-08 5.0842e-09 0.00123339 0.963906 1.00061 
689 0.0092 0.0092 0 -1.42896e-08 -1.42896e-08 -2.99198e-09 0.000338507 0.316093 0.311336 
729 0.001 0.001 0 -1.98763e-09 -1.98763e-09 1.10138e-09 2.82669e-05 0.024428 0.022471 
769 0.0012 0.0012 0 -2.5121e-09 -2.5121e-09 9.21505e-10 3.16094e-05 0.00476897 0.00748151 
809 0.0106 0.0106 0 -1.52055e-08 -1.52055e-08 3.0153e-09 0.00035858 0.265204 0.278796 
849 0.0228 0.0228 0 -3.00725e-08 -3.00725e-08 5.49373e-09 0.00101344 0.530148 0.554655 
889 0.0432 0.0432 0 -2.61752e-08 -2.61752e-08 -2.32041e-09 0.00227547 1.15681 1.2117 
929 0.0872 0.0872 0 6.62867e-08 6.62867e-08 -7.76098e-09 0.0051352 2.61856 2.7627 
969 0.1834 0.1834 0 5.51243e-07 5.51243e-07 6.79928e-09 0.00964256 6.91996 7.08029 
10 0.68 0.68 0 4.09383e-06 4.09383e-06 -2.91624e-08 0.0335603 35.7119 36.0573 
50 1.762 1.762 0 1.33347e-05 1.33347e-05 -1.09116e-08 0.105895 103.754 104.128 
90 2.9 2.9 0 2.48434e-05 2.48434e-05 7.66849e-09 0.225467 173.804 174.452 
130 3.9444 3.9444 0 3.73962e-05 3.73962e-05 5.95392e-08 0.369221 236.565 238.06 
170 4.6844 4.6844 0 4.81546e-05 4.81546e-05 3.42369e-08 0.497437 282.553 283.606 
210 5.168 5.168 0 5.58938e-05 5.58938e-05 -1.12941e-07 0.589449 310.898 312.244 
250 5.3128 5.3128 0 5.85447e-05 5.85447e-05 -2.15177e-08 0.621179 320.075 321.809 
290 5.1862 5.1862 0 5.60593e-05 5.60593e-05 4.15447e-08 0.591168 310.556 311.859 
330 4.6614 4.6614 0 4.78316e-05 4.78316e-05 2.30665e-09 0.493474 280.206 281.744 
370 3.9004 3.9004 0 3.68845e-05 3.68845e-05 1.94168e-08 0.363259 233.114 234.236 
410 2.8538 2.8538 0 2.43375e-05 2.43375e-05 8.06668e-08 0.219688 170.61 171.128 
450 1.738 1.738 0 1.31646e-05 1.31646e-05 -1.43601e-08 0.103787 102.896 103.542 
490 0.682 0.682 0 4.20936e-06 4.20936e-06 -1.25706e-08 0.0332729 36.7024 37.0425 
530 0.1904 0.1904 0 5.60343e-07 5.60343e-07 2.42854e-09 0.0101513 7.08716 7.4378 
570 0.0828 0.0828 0 4.83299e-08 4.83299e-08 -4.31613e-09 0.00507146 2.74096 3 
610 0.05 0.05 0 -2.44589e-08 -2.44589e-08 -1.89839e-08 0.00277523 1.53788 1.6149 
650 0.0238 0.0238 0 -2.47745e-08 -2.47745e-08 1.02845e-09 0.00115754 0.770151 0.84086 
690 0.0124 0.0124 0 -2.16923e-08 -2.16923e-08 5.07654e-09 0.00044257 0.267333 0.278434 
730 0.0018 0.0018 0 -2.18337e-09 -2.18337e-09 7.96714e-10 3.13848e-05 0.0294586 0.0299042 
770 0.0018 0.0018 0 -3.26228e-09 -3.26228e-09 -2.30833e-10 3.96163e-05 0.0326595 0.0475045 
810 0.0118 0.0118 0 -1.67573e-08 -1.67573e-08 5.53601e-09 0.000409919 0.357702 0.372066 
850 0.0292 0.0292 0 -3.14357e-08 -3.14357e-08 1.52116e-08 0.00136501 0.868264 0.906394 
890 0.0448 0.0448 0 -1.89591e-08 -1.89591e-08 -1.41796e-10 0.00251599 1.41788 1.48412 
930 0.0844 0.0844 0 6.86076e-08 6.86076e-08 -7.28833e-09 0.00484199 2.7433 2.88664 
970 0.1872 0.1872 0 5.90789e-07 5.90789e-07 5.2779e-09 0.0100436 7.12671 7.51391 
11 0.7218 0.7218 0 4.46473e-06 4.46473e-06 2.38826e-08 0.0352378 38.7309 39.201 
51 1.7734 1.7734 0 1.34456e-05 1.34456e-05 1.15984e-08 0.107733 104.547 104.928 
91 2.9522 2.9522 0 2.51924e-05 2.51924e-05 2.5182e-08 0.22987 175.532 176.172 
131 3.9172 3.9172 0 3.71474e-05 3.71474e-05 -1.44376e-08 0.367067 233.429 234.499 
171 4.712 4.712 0 4.85632e-05 4.85632e-05 -9.53891e-08 0.501514 284.012 285.524 
211 5.1792 5.1792 0 5.63983e-05 5.63983e-05 -4.74225e-08 0.595036 313.491 314.931 
251 5.3594 5.3594 0 5.88881e-05 5.88881e-05 8.36e-08 0.624824 318.197 319.521 
291 5.1514 5.1514 0 5.57972e-05 5.57972e-05 5.64316e-08 0.588235 313.386 314.554 
331 4.6906 4.6906 0 4.81631e-05 4.81631e-05 -3.91542e-08 0.496887 281.564 282.811 
371 3.8738 3.8738 0 3.65108e-05 3.65108e-05 6.26112e-08 0.359841 232.24 233.054 
411 2.8562 2.8562 0 2.43325e-05 2.43325e-05 -6.57208e-08 0.217993 170.987 171.445 
451 1.708 1.708 0 1.28836e-05 1.28836e-05 -6.04449e-08 0.101482 101.048 101.698 
491 0.6654 0.6654 0 4.0407e-06 4.0407e-06 -4.02863e-08 0.0325663 35.6031 35.8557 
531 0.1836 0.1836 0 5.67352e-07 5.67352e-07 8.51994e-09 0.00983035 7.19722 7.49811 
571 0.0896 0.0896 0 5.37343e-08 5.37343e-08 -1.27726e-08 0.00546434 2.70889 2.78659 
611 0.0512 0.0512 0 -1.88759e-08 -1.88759e-08 -1.02069e-08 0.00283015 1.63185 1.69409 
651 0.0218 0.0218 0 -2.86043e-08 -2.86043e-08 7.49531e-10 0.00106553 0.663907 0.689499 
691 0.0088 0.0088 0 -1.27834e-08 -1.27834e-08 -8.17651e-10 0.000295097 0.216861 0.226219 
731 0.0016 0.0016 0 -3.16643e-09 -3.16643e-09 3.56078e-09 3.98705e-05 0.0233601 0.0218981 
771 0.001 0.001 0 -1.36419e-09 -1.36419e-09 -1.08841e-09 1.58874e-05 0.0124304 0.00782515 
811 0.0108 0.0108 0 -1.18622e-08 -1.18622e-08 1.58715e-09 0.000356982 0.304158 0.311494 
851 0.0286 0.0286 0 -2.6102e-08 -2.6102e-08 4.08638e-09 0.00134755 0.938275 0.973094 
891 0.05 0.05 0 -1.6681e-08 -1.6681e-08 2.33647e-09 0.00282058 1.57836 1.6667 
931 0.084 0.084 0 6.33655e-08 6.33655e-08 4.91418e-09 0.00491364 2.40135 2.5361 
971 0.2066 0.2066 0 6.75856e-07 6.75856e-07 1.91652e-08 0.0112159 8.0677 8.39804 
12 0.7654 0.7654 0 4.80562e-06 4.80562e-06 -1.12293e-08 0.0377922 41.3991 41.895 
52 1.8076 1.8076 0 1.36928e-05 1.36928e-05 -3.55059e-08 0.110704 105.337 105.823 
92 2.952 2.952 0 2.54084e-05 2.54084e-05 -7.08989e-08 0.229874 176.963 177.745 
132 3.9742 3.9742 0 3.78401e-05 3.78401e-05 -9.61818e-08 0.375173 238.261 239.275 
172 4.7926 4.7926 0 4.9271e-05 4.9271e-05 5.49876e-08 0.508796 289.781 291.531 
212 5.26 5.26 0 5.71397e-05 5.71397e-05 -1.029e-07 0.602939 316.659 318.221 
252 5.4232 5.4232 0 5.95101e-05 5.95101e-05 4.50683e-08 0.631391 326.503 328.242 
292 5.1888 5.1888 0 5.63565e-05 5.63565e-05 -1.42669e-08 0.593704 313.359 314.539 
332 4.6418 4.6418 0 4.73337e-05 4.73337e-05 -3.78813e-09 0.487824 277.673 278.879 
372 3.8542 3.8542 0 3.63209e-05 3.63209e-05 5.97642e-08 0.356211 232.24 232.854 
412 2.8174 2.8174 0 2.37614e-05 2.37614e-05 -7.44203e-08 0.214495 168.091 168.8 
452 1.6846 1.6846 0 1.25333e-05 1.25333e-05 -5.57862e-10 0.0995429 98.4339 99.2292 
492 0.6452 0.6452 0 3.88223e-06 3.88223e-06 -1.07742e-08 0.0314441 34.2625 34.6229 
532 0.1696 0.1696 0 4.82473e-07 4.82473e-07 -1.34604e-08 0.0092907 6.27613 6.44783 
572 0.0792 0.0792 0 5.39595e-08 5.39595e-08 -6.25411e-09 0.00446852 2.25699 2.43523 
612 0.0462 0.0462 0 -1.20687e-08 -1.20687e-08 -5.66163e-09 0.00262614 1.52943 1.60347 
652 0.0262 0.0262 0 -2.24277e-08 -2.24277e-08 -1.54844e-09 0.00115545 0.838148 0.881892 
692 0.0078 0.0078 0 -7.8899e-09 -7.8899e-09 1.45079e-09 0.000272569 0.357463 0.356225 
732 0.0006 0.0006 0 -7.27431e-11 -7.27431e-11 -1.87389e-10 4.50171e-06 0.0294157 0.0296494 
772 0.0016 0.0016 0 -2.4649e-09 -2.4649e-09 5.57786e-11 3.73704e-05 0.0458897 0.0494851 
812 0.0098 0.0098 0 -1.26377e-08 -1.26377e-08 -1.37352e-09 0.00032049 0.267395 0.287518 
852 0.026 0.026 0 -2.26806e-08 -2.26806e-08 2.55829e-09 0.00123421 0.845175 0.891967 
892 0.048 0.048 0 -1.68662e-08 -1.68662e-08 -9.25495e-09 0.00274003 1.54718 1.6958 
932 0.0944 0.0944 0 6.32299e-08 6.32299e-08 7.43252e-09 0.0057183 2.84122 3.01621 
972 0.2078 0.2078 0 6.85059e-07 6.85059e-07 -4.47467e-09 0.0111466 8.07317 8.40095 
13 0.773 0.773 0 4.9039e-06 4.9039e-06 1.71609e-08 0.0383206 41.7085 41.9169 
53 1.8302 1.8302 0 1.39462e-05 1.39462e-05 2.96062e-08 0.112216 107.64 108.215 
93 2.9396 2.9396 0 2.53676e-05 2.53676e-05 1.62849e-08 0.230642 176.543 177.097 
133 4.048 4.048 0 3.85503e-05 3.85503e-05 2.10259e-08 0.382175 243.474 244.268 
173 4.7662 4.7662 0 4.92555e-05 4.92555e-05 8.15724e-08 0.510547 284.744 286.703 
213 5.2022 5.2022 0 5.64853e-05 5.64853e-05 3.79981e-09 0.596195 312.421 314.278 
253 5.3168 5.3168 0 5.87117e-05 5.87117e-05 1.03638e-08 0.622926 320.776 322.634 
293 5.0814 5.0814 0 5.47205e-05 5.47205e-05 3.607e-08 0.576098 306.737 308.305 
333 4.6184 4.6184 0 4.71697e-05 4.71697e-05 -5.39663e-08 0.486014 276.431 277.491 
373 3.8508 3.8508 0 3.62656e-05 3.62656e-05 -2.4988e-08 0.354763 232.643 233.378 
413 2.7858 2.7858 0 2.35994e-05 2.35994e-05 -8.586e-08 0.211579 167.055 167.646 
453 1.6388 1.6388 0 1.21553e-05 1.21553e-05 3.24487e-08 0.0966358 95.2515 95.562 
493 0.616 0.616 0 3.60997e-06 3.60997e-06 -2.65837e-08 0.029458 32.0921 32.3705 
533 0.1744 0.1744 0 4.48579e-07 4.48579e-07 -1.77485e-08 0.00969441 6.07648 6.406 
573 0.0736 0.0736 0 2.36217e-08 2.36217e-08 -1.8272e-09 0.00452734 2.09274 2.26766 
613 0.0432 0.0432 0 -2.35041e-08 -2.35041e-08 -8.73894e-09 0.00242908 1.41391 1.47323 
653 0.021 0.021 0 -2.67958e-08 -2.67958e-08 -1.77992e-09 0.00105619 0.700154 0.725436 
693 0.012 0.012 0 -1.70668e-08 -1.70668e-08 7.32645e-09 0.00038884 0.366973 0.389289 
733 0.0008 0.0008 0 -1.19242e-09 -1.19242e-09 1.56087e-10 1.70661e-05 0.023953 0.0222479 
773 0.0026 0.0026 0 -3.49668e-09 -3.49668e-09 1.21038e-09 5.16898e-05 0.0689186 0.065104 
813 0.0114 0.0114 0 -1.38007e-08 -1.38007e-08 -4.10307e-09 0.000419863 0.391921 0.415249 
853 0.0274 0.0274 0 -2.79804e-08 -2.79804e-08 -3.08219e-10 0.00125097 0.709487 0.718095 
893 0.048 0.048 0 -2.29106e-08 -2.29106e-08 -9.80055e-09 0.0027107 1.32244 1.44245 
933 0.0928 0.0928 0 4.70446e-08 4.70446e-08 1.27767e-08 0.00562762 2.6343 2.8047 
973 0.2136 0.2136 0 7.6756e-07 7.6756e-07 1.84801e-08 0.0109399 8.65511 9.06919 
14 0.7934 0.7934 0 5.00354e-06 5.00354e-06 4.27886e-08 0.0392186 42.7144 43.1121 
54 1.8904 1.8904 0 1.42959e-05 1.42959e-05 -2.34234e-08 0.116283 109.967 110.388 
94 3.051 3.051 0 2.62871e-05 2.62871e-05 3.73306e-09 0.240188 182.846 183.46 
134 3.9904 3.9904 0 3.82267e-05 3.82267e-05 5.76473e-08 0.380668 237.727 238.9 
174 4.798 4.798 0 4.97038e-05 4.97038e-05 3.30582e-09 0.514845 289.063 290.5 
214 5.2468 5.2468 0 5.71744e-05 5.71744e-05 -7.5506e-08 0.60387 316.685 318.111 
254 5.2744 5.2744 0 5.81266e-05 5.81266e-05 -2.11908e-08 0.616695 318.034 319.209 
294 5.1424 5.1424 0 5.55458e-05 5.55458e-05 1.30219e-07 0.584362 309.994 311.29 
334 4.5744 4.5744 0 4.65724e-05 4.65724e-05 -8.87493e-08 0.478569 275.992 277.159 
374 3.7882 3.7882 0 3.55687e-05 3.55687e-05 7.88455e-08 0.348142 227.386 228.186 
414 2.7882 2.7882 0 2.3385e-05 2.3385e-05 3.20145e-08 0.208494 167.033 167.778 
454 1.6004 1.6004 0 1.19542e-05 1.19542e-05 -1.00122e-08 0.0932003 94.6114 94.9475 
494 0.5964 0.5964 0 3.54476e-06 3.54476e-06 3.33674e-09 0.0282552 31.3349 31.6493 
534 0.1808 0.1808 0 5.06156e-07 5.06156e-07 -2.20129e-09 0.00977227 6.47052 6.74289 
574 0.0794 0.0794 0 4.38453e-08 4.38453e-08 -9.861e-10 0.00465656 2.29401 2.4255 
614 0.0468 0.0468 0 -1.49631e-08 -1.49631e-08 5.9241e-09 0.0024955 1.48422 1.57956 
654 0.025 0.025 0 -2.95231e-08 -2.95231e-08 -2.52143e-09 0.00117633 0.73828 0.767715 
694 0.0112 0.0112 0 -1.42683e-08 -1.42683e-08 -6.12635e-09 0.000362961 0.345069 0.34326 
734 0.0006 0.0006 0 -1.4011e-09 -1.4011e-09 -1.52838e-09 1.78507e-05 0.0211377 0.0217136 
774 0.003 0.003 0 -6.08046e-09 -6.08046e-09 2.74122e-10 8.97781e-05 0.0668826 0.0670866 
814 0.011 0.011 0 -1.67224e-08 -1.67224e-08 2.44869e-09 0.000415003 0.29466 0.304444 
854 0.0328 0.0328 0 -3.15421e-08 -3.15421e-08 6.0544e-09 0.00162742 1.09043 1.16223 
894 0.0526 0.0526 0 -2.20534e-08 -2.20534e-08 8.31209e-09 0.00302859 1.67052 1.78997 
934 0.087 0.087 0 9.64577e-08 9.64577e-08 -1.03345e-09 0.00505293 2.73909 2.93624 
974 0.2092 0.2092 0 7.43865e-07 7.43865e-07 -1.78532e-08 0.0108819 8.25945 8.57835 
15 0.8038 0.8038 0 5.1306e-06 5.1306e-06 -2.80147e-08 0.0401649 43.7202 44.3766 
55 1.9418 1.9418 0 1.49833e-05 1.49833e-05 2.16614e-08 0.120485 115.579 115.979 
95 3.0378 3.0378 0 2.63047e-05 2.63047e-05 1.00315e-08 0.24055 181.586 182.252 
135 4.0134 4.0134 0 3.85089e-05 3.85089e-05 -7.77866e-08 0.381497 242.599 243.269 
175 4.7774 4.7774 0 4.96513e-05 4.96513e-05 -2.64216e-08 0.514432 288.531 289.931 
215 5.246 5.246 0 5.69999e-05 5.69999e-05 2.61782e-08 0.601967 314.743 316.413 