ITEM: TIMESTEP
25000
ITEM: NUMBER OF SURFS
1000
ITEM: BOX BOUNDS oo rr pp
0 0.3
0 0.3
-0.5 0.5
ITEM: SURFS id f_4[1] f_4[2] f_4[3] f_4[4] f_4[5] f_4[6] f_4[7] f_4[8] f_4[9] 
1 1.1378 1.1378 0 0.00213249 0.00213249 -7.23981e-06 100.236 9182.35 12026.5 
41 2.0896 2.0896 0 0.0071679 0.0071679 7.15787e-05 185.303 15551.6 20596.4 
81 3.5408 3.5408 0 0.0180223 0.0180223 1.00901e-05 316.447 27327.4 37707.8 
121 5.4026 5.4026 0 0.0352589 0.0352589 3.61893e-06 485.655 42255.9 58059.1 
161 7.3582 7.3582 0 0.0552305 0.0552305 0.00023279 660.223 52457.4 72734 
201 9.0248 9.0248 0 0.0737108 0.0737108 -0.000147055 810.392 63159 87519.5 
241 9.8994 9.8994 0 0.0836314 0.0836314 5.59923e-06 888.346 66430.4 95788.5 
281 9.405 9.405 0 0.0791011 0.0791011 4.19186e-05 851.661 76103.6 104753 
321 8.1122 8.1122 0 0.0645876 0.0645876 4.92646e-05 736.946 64916.1 87966.8 
361 6.3864 6.3864 0 0.0439351 0.0439351 -9.67816e-05 569.252 43551.6 60303.6 
401 4.3198 4.3198 0 0.0242841 0.0242841 3.52624e-05 384.301 30449 42068 
441 2.6444 2.6444 0 0.0109694 0.0109694 0.000139084 234.585 18514.1 25994.5 
481 1.4548 1.4548 0 0.00361935 0.00361935 -6.75432e-05 128.829 10582.7 14524.8 
521 0.746 0.746 0 0.000631268 0.000631268 -6.31483e-06 65.8281 6303.53 8226.08 
561 0.3766 0.3766 0 -0.000259297 -0.000259297 3.96144e-05 32.4285 3496.31 4268.39 
601 0.1828 0.1828 0 -0.000380934 -0.000380934 1.78299e-05 15.1339 1484.74 1777.91 
641 0.106 0.106 0 -0.000478989 -0.000478989 -1.63115e-05 8.38476 743.759 1005.52 
681 0.1848 0.1848 0 -0.00136786 -0.00136786 -7.30498e-06 16.0721 832.172 1120.62 
721 0.2316 0.2316 0 -0.00189574 -0.00189574 -2.16879e-05 20.3113 944.143 1402.04 
761 0.2526 0.2526 0 -0.00201658 -0.00201658 -7.50764e-05 21.3753 996.246 1294.93 
801 0.1972 0.1972 0 -0.00154184 -0.00154184 2.50553e-05 17.0587 873.599 1234.62 
841 0.1288 0.1288 0 -0.000788117 -0.000788117 -3.2188e-05 10.8527 662.05 986.735 
881 0.134 0.134 0 -0.000383381 -0.000383381 1.25363e-06 11.1391 1571.73 1880.67 
921 0.2796 0.2796 0 -0.00037471 -0.00037471 2.10904e-05 23.9282 2709.75 3224.11 
961 0.5536 0.5536 0 9.42139e-05 9.42139e-05 1.86966e-05 48.4932 4812.47 6309.74 
2 1.1732 1.1732 0 0.0021957 0.0021957 -4.72013e-06 104.768 9132.36 12278.2 
42 2.1022 2.1022 0 0.00718644 0.00718644 -7.34217e-06 185.426 14636.6 20207 
82 3.5182 3.5182 0 0.0178417 0.0178417 0.000176246 315.399 24857.3 34361.8 
122 5.3946 5.3946 0 0.034404 0.034404 0.000188542 478.596 34897.5 48048 
162 7.3408 7.3408 0 0.055585 0.055585 -0.000193312 661.764 54724.7 75195.9 
202 9.1722 9.1722 0 0.0745507 0.0745507 -6.13788e-05 818.935 59894.3 84199.7 
242 9.8862 9.8862 0 0.0837414 0.0837414 -0.000250999 889.287 68072.6 94896 
282 9.4716 9.4716 0 0.0794406 0.0794406 -4.14832e-05 856.431 69827.3 97657.4 
322 8.1524 8.1524 0 0.0629341 0.0629341 -0.000181629 725.612 52883.2 74758.3 
362 6.0496 6.0496 0 0.0422608 0.0422608 0.00017403 544.209 45335.7 61745.3 
402 4.1276 4.1276 0 0.0229236 0.0229236 -1.27896e-05 366.448 27611.5 37845.4 
442 2.6454 2.6454 0 0.0106106 0.0106106 3.93298e-05 232.545 18142.5 24855.6 
482 1.4152 1.4152 0 0.00351131 0.00351131 9.18491e-05 126.301 11121.9 14801.1 
522 0.7574 0.7574 0 0.000616418 0.000616418 1.50226e-05 66.5041 6443.22 7964.92 
562 0.3734 0.3734 0 -0.000270366 -0.000270366 1.74192e-06 32.234 3468.13 4335.01 
602 0.1596 0.1596 0 -0.000377512 -0.000377512 2.39282e-05 13.6619 1490.35 1838.39 
642 0.1128 0.1128 0 -0.000503221 -0.000503221 2.6696e-05 9.06139 846.827 1074.39 
682 0.1774 0.1774 0 -0.00132987 -0.00132987 -6.31527e-06 15.4274 986.067 1361.85 
722 0.2332 0.2332 0 -0.00189867 -0.00189867 1.18458e-05 20.3808 986.117 1568.83 
762 0.2554 0.2554 0 -0.00212339 -0.00212339 -6.42407e-06 22.5538 1013.96 1291.88 
802 0.2086 0.2086 0 -0.00161228 -0.00161228 2.87201e-06 17.8926 907.99 1321.95 
842 0.1296 0.1296 0 -0.00074128 -0.00074128 -4.92621e-06 10.5748 943.141 1199.2 
882 0.121 0.121 0 -0.000323674 -0.000323674 -6.49261e-06 9.69061 1164.25 1325.1 
922 0.2764 0.2764 0 -0.000383765 -0.000383765 -2.63749e-06 24.0911 2564.68 3133.88 
962 0.5734 0.5734 0 0.000117971 0.000117971 -3.60024e-05 49.9461 4912.23 6187.73 
3 1.1744 1.1744 0 0.00227071 0.00227071 1.88951e-05 104.16 9263.2 12409.9 
43 2.1342 2.1342 0 0.00762577 0.00762577 -4.14115e-05 188.695 15290.6 20888.8 
83 3.559 3.559 0 0.0182719 0.0182719 6.51222e-05 316.051 24387.9 32973.8 
123 5.5772 5.5772 0 0.0363719 0.0363719 2.74823e-05 498.658 41354.3 56046.7 
163 7.5678 7.5678 0 0.0562615 0.0562615 2.00246e-05 670.693 47332 66385.6 
203 9.071 9.071 0 0.0738107 0.0738107 0.000192797 808.522 56812.5 80770.6 
243 9.8414 9.8414 0 0.0834851 0.0834851 -5.16825e-05 886.481 69631 98522.4 
283 9.5864 9.5864 0 0.0793406 0.0793406 -5.81087e-05 855.912 60975.2 86947.2 
323 8.176 8.176 0 0.0634165 0.0634165 -0.000158652 730.269 54779.7 75823.5 
363 6.2826 6.2826 0 0.043291 0.043291 -0.000141355 561.745 41997 58983.3 
403 4.2392 4.2392 0 0.0240076 0.0240076 3.01188e-06 380.291 33186.8 45108.1 
443 2.5828 2.5828 0 0.0103799 0.0103799 -6.22616e-06 230.021 18158.6 24676.3 
483 1.408 1.408 0 0.00333151 0.00333151 2.94114e-05 124.907 10003.3 14066.2 
523 0.7424 0.7424 0 0.000499439 0.000499439 1.1418e-05 65.5168 6692.91 8801.82 
563 0.358 0.358 0 -0.000261155 -0.000261155 9.97158e-06 30.7142 3231.92 4010.64 
603 0.1738 0.1738 0 -0.000378804 -0.000378804 1.03556e-05 14.2235 1623.82 1979.98 
643 0.1054 0.1054 0 -0.000476261 -0.000476261 2.51461e-05 8.5872 998.035 1263.59 
683 0.1828 0.1828 0 -0.0013714 -0.0013714 -3.0239e-05 15.8124 955.668 1159.7 
723 0.2408 0.2408 0 -0.00191388 -0.00191388 2.08042e-05 20.4507 1056.11 1628.89 
763 0.2542 0.2542 0 -0.00212329 -0.00212329 2.86656e-05 22.5897 985.547 1426.83 
803 0.2088 0.2088 0 -0.00158897 -0.00158897 -6.47076e-07 17.7814 922.277 1438.69 
843 0.1278 0.1278 0 -0.000710615 -0.000710615 2.55267e-06 10.4395 1081.18 1395.97 
883 0.138 0.138 0 -0.000372395 -0.000372395 -1.14901e-05 11.2464 1396.98 1557.4 
923 0.2822 0.2822 0 -0.000336803 -0.000336803 3.49932e-05 24.1356 2575 3197.8 
963 0.5956 0.5956 0 0.000109013 0.000109013 -8.44629e-05 52.033 4993.55 6361.85 
4 1.2012 1.2012 0 0.00225494 0.00225494 5.49597e-05 106.674 9702.46 12870.2 
44 2.1992 2.1992 0 0.00797193 0.00797193 4.83135e-05 195.162 16965.7 22660.3 
84 3.7648 3.7648 0 0.0196089 0.0196089 -2.53685e-05 337.223 27910.3 38134 
124 5.4426 5.4426 0 0.0353991 0.0353991 -0.000115565 486.161 37059.1 51456.6 
164 7.5744 7.5744 0 0.057711 0.057711 -0.000298681 683.256 56921.8 78645.5 
204 9.0476 9.0476 0 0.0751439 0.0751439 0.000104198 822.117 70621.1 97619.3 
244 9.8548 9.8548 0 0.0837071 0.0837071 0.000255978 888.505 70295.3 98828.7 
284 9.5076 9.5076 0 0.0786175 0.0786175 0.000185218 849.421 61884.4 86780.7 
324 7.9486 7.9486 0 0.0626299 0.0626299 8.11853e-05 722.091 59312 82049.6 
364 5.8852 5.8852 0 0.0406042 0.0406042 -4.29293e-05 531.008 44081.6 60560.3 
404 4.1914 4.1914 0 0.0232129 0.0232129 3.86977e-05 371.142 28732.1 38764.5 
444 2.4878 2.4878 0 0.0101806 0.0101806 0.000153342 223.833 19238.2 26446 
484 1.4086 1.4086 0 0.00326486 0.00326486 6.04286e-05 124.782 11449.2 15015.1 
524 0.7404 0.7404 0 0.000475869 0.000475869 -1.45788e-05 64.945 5940.52 7798.76 
564 0.3594 0.3594 0 -0.000270267 -0.000270267 -4.40791e-06 31.1239 3426.58 4403.38 
604 0.1566 0.1566 0 -0.000303147 -0.000303147 4.54951e-05 13.0472 1494.07 1798.46 
644 0.1124 0.1124 0 -0.000548748 -0.000548748 -1.64975e-05 9.24114 768.757 1055.22 
684 0.189 0.189 0 -0.00138408 -0.00138408 -3.01733e-05 16.0411 963.549 1456.54 
724 0.2372 0.2372 0 -0.00190268 -0.00190268 7.02686e-06 20.4202 927.083 1401.76 
764 0.2468 0.2468 0 -0.00201057 -0.00201057 -3.26749e-05 21.3521 838.652 1336.57 
804 0.2044 0.2044 0 -0.00154667 -0.00154667 3.93422e-05 17.3979 984.155 1441.15 
844 0.1138 0.1138 0 -0.000639964 -0.000639964 6.81554e-06 9.34029 814.59 1140.47 
884 0.1284 0.1284 0 -0.000332514 -0.000332514 -2.08207e-05 10.5086 1295.85 1443.68 
924 0.2584 0.2584 0 -0.000321185 -0.000321185 9.43065e-06 22.2483 2352.22 2956.7 
964 0.5922 0.5922 0 0.000170329 0.000170329 1.469e-05 52.0093 4792.43 6522.2 
5 1.221 1.221 0 0.00237956 0.00237956 -0.000141903 107.962 9481.02 12816 
45 2.1764 2.1764 0 0.00804488 0.00804488 -0.000178565 195.828 16526.7 22159.9 
85 3.6146 3.6146 0 0.0188075 0.0188075 -0.000247675 324.258 27425.3 37138.5 
125 5.7162 5.7162 0 0.037322 0.037322 0.000168152 509.718 39900.4 54260.1 
165 7.6204 7.6204 0 0.0576412 0.0576412 6.91263e-05 682.886 54340.8 74472.7 
205 9.0592 9.0592 0 0.0750729 0.0750729 -0.000159241 819.204 69265 96292.2 
245 9.843 9.843 0 0.0835448 0.0835448 8.276e-05 886.709 72980.4 102022 
285 9.4866 9.4866 0 0.0786862 0.0786862 4.51155e-05 851.126 64128.8 89453.4 
325 7.9412 7.9412 0 0.0614652 0.0614652 -0.000175761 708.854 56470.9 79189.9 
365 6.2266 6.2266 0 0.0422654 0.0422654 9.99995e-06 553.906 43431.2 60339.9 
405 4.0612 4.0612 0 0.0224907 0.0224907 -2.74266e-05 364.753 28477.8 39305.7 
445 2.523 2.523 0 0.010279 0.010279 3.12861e-06 224.091 19744 26166.5 
485 1.3944 1.3944 0 0.003192 0.003192 -6.98117e-05 124.245 10922.2 14688.6 
525 0.7142 0.7142 0 0.000402058 0.000402058 7.68505e-05 63.0479 5698.94 7540.58 
565 0.341 0.341 0 -0.000346624 -0.000346624 -6.58895e-05 29.3146 2894.78 3807.09 
605 0.1642 0.1642 0 -0.000396053 -0.000396053 -7.34648e-06 13.7347 1667.05 1984.4 
645 0.1108 0.1108 0 -0.000532391 -0.000532391 -1.5355e-05 9.18083 891.559 1248.16 
685 0.1886 0.1886 0 -0.0013926 -0.0013926 -3.11735e-06 16.399 730.242 1163.86 
725 0.2394 0.2394 0 -0.00191587 -0.00191587 3.82778e-05 20.3776 866.151 1299.47 
765 0.2468 0.2468 0 -0.00200735 -0.00200735 2.39274e-05 21.3893 1088.51 1641.44 
805 0.1866 0.1866 0 -0.00145747 -0.00145747 5.83474e-05 16.4322 888.064 1216.03 
845 0.119 0.119 0 -0.000679223 -0.000679223 -1.40764e-05 10.1105 840.542 1024 
885 0.138 0.138 0 -0.000329778 -0.000329778 3.91375e-06 11.3351 1550.2 1837.88 
925 0.3014 0.3014 0 -0.000366285 -0.000366285 9.02333e-06 25.857 2860.09 3432.22 
965 0.6226 0.6226 0 0.000150181 0.000150181 -3.01671e-05 54.5103 5187.25 7082.42 
6 1.224 1.224 0 0.00238783 0.00238783 -2.62559e-05 108.855 9535.53 12777.4 
46 2.2286 2.2286 0 0.0078864 0.0078864 -9.28571e-05 198.138 16423.1 22425.3 
86 3.753 3.753 0 0.0194362 0.0194362 -0.000101591 331.353 26006.4 35659.7 
126 5.5368 5.5368 0 0.0368008 0.0368008 -0.000149755 496.75 39363.5 54108.1 
166 7.6082 7.6082 0 0.0577816 0.0577816 3.2646e-07 680.185 52051.4 72131.4 
206 9.1512 9.1512 0 0.0757346 0.0757346 0.000352764 825.589 66723.7 92916.4 
246 9.762 9.762 0 0.0834269 0.0834269 0.000187974 885.32 74584.8 104138 
286 9.3904 9.3904 0 0.0778752 0.0778752 0.000141662 841.917 65108 90001.3 
326 8.1566 8.1566 0 0.0629594 0.0629594 0.000157174 732.038 55764.1 76663.1 
366 5.908 5.908 0 0.0399703 0.0399703 5.879e-05 526.921 40503.7 56100 
406 4.0452 4.0452 0 0.0222466 0.0222466 2.97232e-05 359.914 30314.3 40833.8 
446 2.442 2.442 0 0.00954516 0.00954516 -0.000214197 217.543 17566.4 23647.4 
486 1.3858 1.3858 0 0.00299155 0.00299155 2.58416e-05 122.562 10449.7 14332 
526 0.7084 0.7084 0 0.000465187 0.000465187 -3.06638e-05 62.083 5645.98 7462.69 
566 0.3558 0.3558 0 -0.000315332 -0.000315332 1.84539e-05 31.1368 3189.58 4334.91 
606 0.1512 0.1512 0 -0.000359632 -0.000359632 -4.99041e-05 12.739 1564.29 1871.55 
646 0.1082 0.1082 0 -0.000529756 -0.000529756 -2.47014e-05 8.6365 679.99 821.874 
686 0.1944 0.1944 0 -0.00140184 -0.00140184 1.11929e-05 16.077 873.45 1331.9 
726 0.2472 0.2472 0 -0.00201014 -0.00201014 -8.80841e-06 21.5038 1050.89 1595.68 
766 0.2574 0.2574 0 -0.00208203 -0.00208203 -5.76217e-05 22.132 1101.1 1656.19 
806 0.2016 0.2016 0 -0.00155166 -0.00155166 -3.90535e-05 17.4627 945.735 1243.91 
846 0.1254 0.1254 0 -0.000685874 -0.000685874 5.10008e-06 10.5145 1069.33 1341.95 
886 0.1346 0.1346 0 -0.000353936 -0.000353936 1.84715e-05 11.0095 1259.71 1576.68 
926 0.2904 0.2904 0 -0.000314896 -0.000314896 2.65164e-05 25.5117 3051.96 3768.7 
966 0.616 0.616 0 0.000294634 0.000294634 0.000100597 53.5049 5374.76 6780.7 
7 1.228 1.228 0 0.00257249 0.00257249 0.000114282 108.695 9505.33 12891.2 
47 2.2748 2.2748 0 0.00822461 0.00822461 8.12543e-05 202.536 16287.3 22307.8 
87 3.8406 3.8406 0 0.020465 0.020465 4.46926e-05 342.387 27964.5 38758.8 
127 5.8414 5.8414 0 0.0382893 0.0382893 -4.19824e-06 517.738 39315.5 55093.4 
167 7.866 7.866 0 0.0596005 0.0596005 -6.80342e-05 703.204 53849.2 74670.3 
207 9.2968 9.2968 0 0.0764979 0.0764979 -0.000439705 832.8 63810.2 88041.4 
247 9.722 9.722 0 0.0833456 0.0833456 8.6869e-05 884.445 75506.6 103187 
287 9.4148 9.4148 0 0.0787577 0.0787577 2.94763e-05 852.361 71837.9 98487.6 
327 7.7976 7.7976 0 0.0598671 0.0598671 -0.000298049 695.947 54255.8 75333.1 
367 6.0224 6.0224 0 0.0410836 0.0410836 -4.14645e-05 541.595 45163.5 61800.2 
407 4.097 4.097 0 0.0219601 0.0219601 0.000110867 362.509 26947.1 37469.6 
447 2.3928 2.3928 0 0.00907168 0.00907168 1.9965e-06 213.283 17611.3 23625.2 
487 1.3308 1.3308 0 0.00291359 0.00291359 -0.000115078 117.789 9984.68 13456 
527 0.7044 0.7044 0 0.00039979 0.00039979 5.60506e-05 62.0747 5973.03 7827.95 
567 0.3298 0.3298 0 -0.000393361 -0.000393361 2.04243e-05 28.6057 2886.54 3608.14 
607 0.1486 0.1486 0 -0.000349305 -0.000349305 5.2067e-05 12.5735 1825.9 2224.33 
647 0.1054 0.1054 0 -0.000504886 -0.000504886 1.55465e-05 8.65503 817.956 1056.65 
687 0.2002 0.2002 0 -0.00149486 -0.00149486 4.06237e-05 17.1656 992.779 1418.91 
727 0.237 0.237 0 -0.00197743 -0.00197743 2.18289e-05 21.0839 1446.21 1577.05 
767 0.253 0.253 0 -0.00203511 -0.00203511 1.24558e-05 21.7071 1081.48 1684.1 
807 0.2042 0.2042 0 -0.00158588 -0.00158588 -1.67876e-05 17.8512 914.441 1482.17 
847 0.1148 0.1148 0 -0.000629962 -0.000629962 -4.52717e-06 9.53425 864.13 1260.28 
887 0.1572 0.1572 0 -0.000389478 -0.000389478 6.23873e-06 12.9087 1819.11 2177.83 
927 0.312 0.312 0 -0.000356043 -0.000356043 2.93534e-05 27.0665 2920.16 3589.73 
967 0.6252 0.6252 0 0.000268627 0.000268627 5.12907e-06 55.4059 5195.03 6726.9 
8 1.3186 1.3186 0 0.00275755 0.00275755 -2.17513e-05 117.553 10538.1 14200.9 
48 2.3144 2.3144 0 0.00852121 0.00852121 -1.39219e-05 204.992 17045.5 23059.6 
88 3.7896 3.7896 0 0.0201137 0.0201137 -0.000122978 340.194 27240.1 37660.8 
128 5.701 5.701 0 0.0383302 0.0383302 -0.000204544 512.079 43709.9 59868.5 
168 7.4736 7.4736 0 0.0577644 0.0577644 -0.000150296 677.164 57874.2 78813.1 
208 9.2168 9.2168 0 0.0756252 0.0756252 -0.000334994 823.192 60272.5 83513.6 
248 9.6848 9.6848 0 0.0830014 0.0830014 -3.49335e-05 880.687 77070.7 107256 
288 9.1272 9.1272 0 0.0766247 0.0766247 -3.29874e-05 829.398 73916.6 101577 
328 7.7746 7.7746 0 0.060741 0.060741 0.000252119 706.502 62136.7 85329.4 
368 5.9066 5.9066 0 0.0391908 0.0391908 -0.000120198 521.884 38139.2 52759.5 
408 3.9032 3.9032 0 0.0212519 0.0212519 0.000131354 349.172 28683.2 38625.4 
448 2.3642 2.3642 0 0.0090223 0.0090223 0.000101446 210.536 17085.7 23247.2 
488 1.3232 1.3232 0 0.00294205 0.00294205 2.30962e-05 117.088 10245 13634.3 
528 0.6854 0.6854 0 0.000431098 0.000431098 -1.83155e-05 60.4183 5676.13 7570.17 
568 0.331 0.331 0 -0.000296958 -0.000296958 -2.53109e-05 28.0372 3456.39 4357.55 
608 0.1474 0.1474 0 -0.000366249 -0.000366249 -1.56959e-05 12.3267 1475.81 1849.42 
648 0.1138 0.1138 0 -0.000573871 -0.000573871 -2.58335e-05 9.32472 835.141 1053.71 
688 0.1884 0.1884 0 -0.00140883 -0.00140883 1.62308e-05 16.0573 878.726 1314.05 
728 0.255 0.255 0 -0.00206093 -0.00206093 1.14027e-05 21.9485 988.863 1484.08 
768 0.2574 0.2574 0 -0.00213968 -0.00213968 3.92596e-05 22.7833 1266.4 1714.69 
808 0.202 0.202 0 -0.00154298 -0.00154298 -1.15223e-05 17.4083 876.371 1269.28 
848 0.1172 0.1172 0 -0.000587465 -0.000587465 2.14805e-05 9.36853 968.575 1177.67 
888 0.1478 0.1478 0 -0.000318487 -0.000318487 5.00206e-06 11.9834 1504.37 1848.49 
928 0.3036 0.3036 0 -0.000319277 -0.000319277 -9.28813e-05 25.9298 2787.34 3399.29 
968 0.6358 0.6358 0 0.000317442 0.000317442 3.4627e-06 56.6027 5583.76 7108.65 
9 1.3216 1.3216 0 0.00280364 0.00280364 3.39816e-05 118.22 10258.7 13903.3 
49 2.3414 2.3414 0 0.00906646 0.00906646 -8.17052e-05 208.506 17902 24302.4 
89 3.869 3.869 0 0.0204643 0.0204643 0.000221452 343.812 26921.9 36211.8 
129 5.8902 5.8902 0 0.0387556 0.0387556 7.62137e-05 522.433 38307.8 53449.5 
169 7.7756 7.7756 0 0.0595407 0.0595407 0.000139193 694.817 53216.3 73969.4 
209 9.358 9.358 0 0.0771262 0.0771262 0.000158681 838.292 60505.4 86353.9 
249 9.7408 9.7408 0 0.0835897 0.0835897 0.000245749 886.903 80500.7 110018 
289 9.2022 9.2022 0 0.0767315 0.0767315 2.41863e-05 832.751 67146.1 94376.8 
329 7.9176 7.9176 0 0.0602843 0.0602843 0.000184489 705.692 50565.4 72391.6 
369 5.8512 5.8512 0 0.039688 0.039688 -7.91122e-05 527.603 45424.7 61703.9 
409 4.0466 4.0466 0 0.0217095 0.0217095 9.82477e-05 361.003 29673.3 40347.7 
449 2.381 2.381 0 0.0092548 0.0092548 -5.50816e-05 213.206 18707.3 25647.9 
489 1.2926 1.2926 0 0.00276973 0.00276973 2.57364e-05 115.538 10284.3 13367.6 
529 0.6832 0.6832 0 0.000420759 0.000420759 7.62603e-05 60.1578 5884.83 7787.02 
569 0.3232 0.3232 0 -0.000355939 -0.000355939 -3.96935e-06 27.5345 2897.54 3458.74 
609 0.1564 0.1564 0 -0.000367813 -0.000367813 5.90759e-06 12.9048 1608.17 2006.06 
649 0.1118 0.1118 0 -0.000574363 -0.000574363 -2.09927e-05 9.34756 910.136 1061.43 
689 0.1912 0.1912 0 -0.00142139 -0.00142139 1.15021e-05 16.1785 866.341 1372.04 
729 0.2346 0.2346 0 -0.00191042 -0.00191042 -2.33478e-05 20.3479 860.365 1164.19 
769 0.2452 0.2452 0 -0.00203956 -0.00203956 -1.97795e-06 21.8023 1256.58 1531.68 
809 0.2038 0.2038 0 -0.0015639 -0.0015639 -4.50855e-05 17.8143 1102.32 1621.37 
849 0.1196 0.1196 0 -0.000622415 -0.000622415 5.78073e-06 9.86402 949.501 1238.44 
889 0.1466 0.1466 0 -0.000389526 -0.000389526 1.10615e-06 12.1503 1369.72 1673.43 
929 0.3304 0.3304 0 -0.000337067 -0.000337067 2.20378e-05 28.1433 3452.61 4157.7 
969 0.631 0.631 0 0.000319556 0.000319556 2.22884e-05 55.5349 5740.86 7592.38 
10 1.338 1.338 0 0.00270877 0.00270877 -1.59668e-07 118.121 10001.1 13542 
50 2.3684 2.3684 0 0.00934481 0.00934481 -6.84496e-07 213.078 18125.6 24632.7 
90 3.9804 3.9804 0 0.0214514 0.0214514 -0.000182228 354.524 28332.1 38896.7 
130 5.7644 5.7644 0 0.0394793 0.0394793 -7.2658e-05 522.303 45798.9 62647.1 
170 7.8698 7.8698 0 0.0601307 0.0601307 -1.59013e-05 704.021 50646.3 71185.5 
210 9.3318 9.3318 0 0.0775337 0.0775337 7.40435e-05 842.212 69130.9 96943.7 
250 9.7902 9.7902 0 0.0837748 0.0837748 -0.000183226 888.894 78443.8 107435 
290 9.3768 9.3768 0 0.0769862 0.0769862 -9.48262e-06 837.552 61015.4 86961.5 
330 7.841 7.841 0 0.0597725 0.0597725 -0.000141256 702.303 51356.4 72526.6 
370 5.868 5.868 0 0.0388415 0.0388415 0.000107876 520.214 36999.4 51466 
410 3.8264 3.8264 0 0.0203797 0.0203797 -0.000158117 338.857 25586.5 35433 
450 2.3368 2.3368 0 0.00889913 0.00889913 2.95352e-05 207.836 17554.2 24142.4 
490 1.3094 1.3094 0 0.00271164 0.00271164 8.24902e-06 116.207 9755.87 12996.9 
530 0.667 0.667 0 0.000321542 0.000321542 -3.69034e-05 58.5076 5713.96 7454.31 
570 0.3152 0.3152 0 -0.000389035 -0.000389035 2.40149e-05 26.9929 2510.47 3241.82 
610 0.1504 0.1504 0 -0.000359745 -0.000359745 2.68906e-06 12.5511 1612.58 1991.91 
650 0.1102 0.1102 0 -0.000555324 -0.000555324 -2.51366e-05 9.17066 844.372 1134.87 
690 0.2086 0.2086 0 -0.00159589 -0.00159589 -5.76464e-06 18.0096 999.597 1419.68 
730 0.2426 0.2426 0 -0.00196468 -0.00196468 7.90366e-06 20.9245 972.677 1581.84 
770 0.234 0.234 0 -0.00189913 -0.00189913 4.12179e-06 20.3091 925.385 1333.09 
810 0.195 0.195 0 -0.00145131 -0.00145131 2.42698e-05 16.6546 1032.17 1281.1 
850 0.1026 0.1026 0 -0.000521371 -0.000521371 3.57618e-05 8.47845 896.003 1051.51 
890 0.1614 0.1614 0 -0.000380517 -0.000380517 -2.85983e-05 13.0637 1704.89 1958.92 
930 0.316 0.316 0 -0.000368449 -0.000368449 2.42002e-05 27.6959 2844.33 3487.67 
970 0.6498 0.6498 0 0.000383141 0.000383141 7.70465e-05 56.9311 5915.83 7866.44 
11 1.3478 1.3478 0 0.00294079 0.00294079 8.89457e-05 119.562 10543.1 14099.4 
51 2.3616 2.3616 0 0.00890317 0.00890317 3.97349e-05 209.728 16626.7 22611.2 
91 3.9044 3.9044 0 0.0211864 0.0211864 -0.000131227 350.692 28546.8 39504.6 
131 5.8444 5.8444 0 0.0389955 0.0389955 -3.67917e-05 519.186 37829.8 51782.9 
171 7.7402 7.7402 0 0.0605233 0.0605233 -7.65685e-05 701.651 62596.2 84917.2 
211 9.0428 9.0428 0 0.0762181 0.0762181 -0.000108581 825.286 73754.2 101546 
251 9.765 9.765 0 0.0836921 0.0836921 4.62257e-05 888.018 77023.1 105590 
291 9.3898 9.3898 0 0.0767173 0.0767173 -2.33817e-05 835.274 59686 84504.5 
331 7.5484 7.5484 0 0.0585905 0.0585905 7.6693e-05 683.445 59651.1 81782.6 
371 5.5868 5.5868 0 0.0374202 0.0374202 0.000133411 502.23 43078.4 58770.2 
411 3.842 3.842 0 0.0204212 0.0204212 -5.70936e-06 343.164 27944.5 38251.8 
451 2.3212 2.3212 0 0.00875469 0.00875469 -0.000203064 205.831 16730.4 22789.4 
491 1.262 1.262 0 0.0026377 0.0026377 2.053e-05 111.63 9964.06 13009.8 
531 0.6614 0.6614 0 0.000388944 0.000388944 -1.81323e-06 57.5758 6220.84 7643.76 
571 0.3176 0.3176 0 -0.000330181 -0.000330181 1.07932e-05 27.1561 3220.23 3969.11 
611 0.148 0.148 0 -0.000374721 -0.000374721 1.46968e-06 12.1049 1299.06 1673.94 
651 0.1124 0.1124 0 -0.00061778 -0.00061778 -4.03842e-06 9.34672 745.357 1009.48 
691 0.1932 0.1932 0 -0.0014815 -0.0014815 -2.91497e-07 16.7615 786.486 1115.28 
731 0.2562 0.2562 0 -0.00208596 -0.00208596 1.68311e-05 22.2379 1204.76 1723.57 
771 0.2512 0.2512 0 -0.00204086 -0.00204086 -2.56859e-05 21.7798 1204.46 1629.22 
811 0.197 0.197 0 -0.00145894 -0.00145894 -4.05895e-05 16.7231 815.152 1265.06 
851 0.113 0.113 0 -0.000558366 -0.000558366 8.76302e-06 9.04067 876.208 1110.76 
891 0.156 0.156 0 -0.000351051 -0.000351051 1.01814e-05 13.1062 1929.72 2233.3 
931 0.3248 0.3248 0 -0.000310455 -0.000310455 -2.18077e-05 28.0905 3236.8 4066.24 
971 0.6864 0.6864 0 0.000343491 0.000343491 -3.28166e-05 61.1864 6141.9 7959.95 
12 1.3444 1.3444 0 0.00300443 0.00300443 3.76333e-05 119.205 10501.1 14008 
52 2.3674 2.3674 0 0.00918204 0.00918204 -4.80854e-05 209.143 17205.6 22998.1 
92 3.9808 3.9808 0 0.0213777 0.0213777 -1.6971e-05 351.628 27150.4 38258 
132 5.997 5.997 0 0.0409327 0.0409327 7.9385e-05 538.985 45734.8 62174.1 
172 7.7692 7.7692 0 0.0599606 0.0599606 -0.000198015 697.002 53215.5 74177.7 
212 9.3212 9.3212 0 0.07764 0.07764 -8.62448e-05 840.984 70792.3 97863 
252 9.749 9.749 0 0.0837241 0.0837241 -0.000143953 888.463 77039.9 107113 
292 9.3254 9.3254 0 0.0768032 0.0768032 0.00015271 836.925 65130.8 90765.1 
332 7.8538 7.8538 0 0.0597336 0.0597336 0.000123692 701.4 53067.7 74849.8 
372 5.8078 5.8078 0 0.0382271 0.0382271 4.26342e-05 516.856 37923.3 52700.7 
412 3.7856 3.7856 0 0.0203321 0.0203321 -0.000281599 340.706 27800.7 37499 
452 2.2516 2.2516 0 0.00806388 0.00806388 5.51054e-05 200.207 15616.8 22039.2 
492 1.2478 1.2478 0 0.0024532 0.0024532 8.1808e-05 110.603 9793.17 13167.3 
532 0.6302 0.6302 0 0.000254324 0.000254324 6.43056e-05 54.774 5394.91 7063.93 
572 0.2984 0.2984 0 -0.000317307 -0.000317307 -4.0091e-06 25.6061 2864.46 3457.4 
612 0.1402 0.1402 0 -0.000368817 -0.000368817 6.18828e-06 11.4437 1490.61 1668.72 
652 0.1196 0.1196 0 -0.000661684 -0.000661684 1.53477e-05 10.124 740.495 877.734 
692 0.2062 0.2062 0 -0.00156571 -0.00156571 -2.97053e-05 17.6245 1084.22 1219.07 
732 0.2462 0.2462 0 -0.00200227 -0.00200227 -1.57625e-05 21.373 1230.42 1577.08 
772 0.2282 0.2282 0 -0.00180131 -0.00180131 -4.40724e-05 19.2698 1025.28 1507.01 
812 0.205 0.205 0 -0.00153623 -0.00153623 4.00611e-05 17.691 962.099 1701.36 
852 0.114 0.114 0 -0.000577348 -0.000577348 1.51525e-05 9.65829 986.98 1385.91 
892 0.1474 0.1474 0 -0.000339394 -0.000339394 -3.94352e-06 12.2301 1532.06 1777.73 
932 0.3318 0.3318 0 -0.000316226 -0.000316226 -4.02225e-06 29.0283 2944.52 3779.44 
972 0.6932 0.6932 0 0.000426549 0.000426549 -1.75183e-05 61.0751 6226.93 8054 
13 1.337 1.337 0 0.0029839 0.0029839 -5.42426e-05 118.544 10695.5 14343.7 
53 2.496 2.496 0 0.00973309 0.00973309 3.12315e-05 220.042 18340.6 23910.3 
93 4.0808 4.0808 0 0.0226457 0.0226457 8.9596e-05 365.701 29294.7 40688.6 
133 5.8752 5.8752 0 0.0396761 0.0396761 0.000137838 523.596 39370.6 55474.2 
173 8.0764 8.0764 0 0.0622536 0.0622536 -0.000124645 723.88 55226.6 76724.6 
213 9.3826 9.3826 0 0.0780251 0.0780251 0.000222659 843.586 64311.3 89252.8 
253 9.768 9.768 0 0.0836088 0.0836088 -0.000208744 887.282 75868.1 104363 
293 9.094 9.094 0 0.075145 0.075145 -6.79882e-06 819.899 65970 91692.1 
333 7.6568 7.6568 0 0.0578896 0.0578896 0.000166385 683.961 52329.9 72077.8 
373 5.5254 5.5254 0 0.0366883 0.0366883 -0.00021255 499.965 40822.9 55506 
413 3.77 3.77 0 0.0194513 0.0194513 8.95308e-05 333.153 24651.3 34490.8 
453 2.2414 2.2414 0 0.00800203 0.00800203 3.16558e-05 199.231 16686.2 22169 
493 1.2378 1.2378 0 0.00241136 0.00241136 2.35139e-05 109.629 9814.67 12957.6 
533 0.6292 0.6292 0 0.000245569 0.000245569 -2.13547e-05 55.1107 5230.67 6759.26 
573 0.3026 0.3026 0 -0.000371757 -0.000371757 -9.83439e-06 26.3629 2635.89 3339.73 
613 0.1386 0.1386 0 -0.000319128 -0.000319128 -6.25586e-06 11.0423 1497.14 1874.74 
653 0.1208 0.1208 0 -0.000670951 -0.000670951 1.86242e-05 10.0956 1032.75 1231.42 
693 0.1996 0.1996 0 -0.00151621 -0.00151621 1.69421e-05 17.0665 707.279 1121.95 
733 0.2386 0.2386 0 -0.00193813 -0.00193813 4.29126e-07 20.6391 892.388 1388.81 
773 0.2486 0.2486 0 -0.00205012 -0.00205012 1.98429e-05 21.9 938.12 1387.58 
813 0.1738 0.1738 0 -0.00132012 -0.00132012 1.80634e-05 15.3374 862.087 1313.89 
853 0.11 0.11 0 -0.000538572 -0.000538572 -3.05274e-05 8.96251 909.522 1226.15 
893 0.1578 0.1578 0 -0.000391555 -0.000391555 -2.24921e-05 13.0991 1719.54 2245.32 
933 0.3384 0.3384 0 -0.000333993 -0.000333993 -5.71402e-05 29.4828 2763.39 3709.57 
973 0.7246 0.7246 0 0.000315553 0.000315553 -3.23825e-05 63.3325 5964.69 7811.95 
14 1.4194 1.4194 0 0.00326902 0.00326902 -4.68492e-05 127.03 10349.1 13996.4 
54 2.5456 2.5456 0 0.0103431 0.0103431 1.8175e-05 227.018 18418.2 24991 
94 4.0514 4.0514 0 0.0223192 0.0223192 0.000133205 362.501 29111.2 39219.2 
134 6.1962 6.1962 0 0.0424151 0.0424151 -0.000142024 556.479 43283.9 59352.1 
174 7.8912 7.8912 0 0.0612723 0.0612723 9.38698e-05 709.818 57382.8 78901 
214 9.4684 9.4684 0 0.0784775 0.0784775 0.000133386 848.418 63595.3 89317.8 
254 9.7694 9.7694 0 0.0835393 0.0835393 0.000255318 886.694 74612.2 104463 
294 9.0194 9.0194 0 0.075012 0.075012 -0.000156856 818.319 70664.7 96615.3 
334 7.529 7.529 0 0.0572505 0.0572505 -0.000131875 675.085 52796.6 73477.5 
374 5.7048 5.7048 0 0.0371905 0.0371905 -3.10622e-05 509.439 38275.1 53823.8 
414 3.5748 3.5748 0 0.018703 0.018703 0.000115724 321.518 26436.4 36427.6 
454 2.245 2.245 0 0.00825224 0.00825224 -0.000147134 200.993 16857.8 23000.9 
494 1.1902 1.1902 0 0.00228568 0.00228568 -5.53249e-05 105.705 9009.03 12049.9 
534 0.6066 0.6066 0 0.000139994 0.000139994 -7.86363e-05 52.7556 5911.88 7561.86 
574 0.3024 0.3024 0 -0.000385394 -0.000385394 -7.11538e-05 25.8957 2791.17 3454.22 
614 0.1446 0.1446 0 -0.000407905 -0.000407905 -2.68808e-05 12.4255 1466.87 1814.47 
654 0.1128 0.1128 0 -0.000656174 -0.000656174 2.4106e-05 9.63338 776.074 1002.76 
694 0.2054 0.2054 0 -0.00158127 -0.00158127 9.18394e-06 17.7316 784.239 1339.23 
734 0.253 0.253 0 -0.00211244 -0.00211244 3.80116e-06 22.4705 787.645 1256.01 
774 0.2492 0.2492 0 -0.0020083 -0.0020083 2.24811e-05 21.5113 1118.58 1559.95 
814 0.1834 0.1834 0 -0.00137937 -0.00137937 8.0017e-06 15.6087 818.267 1177.91 
854 0.1026 0.1026 0 -0.000490028 -0.000490028 -2.13579e-06 8.49562 780.519 947.041 
894 0.1614 0.1614 0 -0.000389744 -0.000389744 -1.13082e-05 13.5628 1757.4 2236.35 
934 0.3526 0.3526 0 -0.000309123 -0.000309123 -1.07283e-07 30.5296 3481.94 4495.99 
974 0.7464 0.7464 0 0.000548917 0.000548917 7.15994e-06 65.3438 6579.41 8319.75 
15 1.4008 1.4008 0 0.00329935 0.00329935 -6.23315e-06 123.782 11145.9 14539.8 
55 2.5396 2.5396 0 0.0104685 0.0104685 2.34036e-05 228.076 19049.1 26212.6 
95 4.1466 4.1466 0 0.0228681 0.0228681 -6.27342e-05 366.862 28459.4 38779.9 
135 5.9372 5.9372 0 0.0407796 0.0407796 -0.000153026 533.657 43160.3 60103.8 
175 7.837 7.837 0 0.0615466 0.0615466 -0.000195218 708.524 58885.7 81857.9 
215 9.4848 9.4848 0 0.0783641 0.0783641 0.000332505 846.53 62839.5 87647.4 
255 9.8586 9.8586 0 0.0838566 0.0838566 -0.000368701 890.114 73759.2 103172 
295 8.9648 8.9648 0 0.074281 0.074281 -1.00385e-05 813.664 68057.4 94939.9 
335 7.555 7.555 0 0.057568 0.057568 -7.39917e-05 682.176 56214.5 77401.9 
375 5.3736 5.3736 0 0.0349436 0.0349436 0.000100575 479.332 36659.9 50725.1 
415 3.705 3.705 0 0.0191304 0.0191304 0.000249198 331.114 26632.1 36072 
455 2.237 2.237 0 0.00819205 0.00819205 -4.68642e-05 197.982 17354.8 23499.9 
495 1.1962 1.1962 0 0.00229906 0.00229906 2.79171e-05 106.2 9425 12838.1 
535 0.5812 0.5812 0 0.000187334 0.000187334 -1.13929e-05 50.5907 4939.02 6452.11 
575 0.3062 0.3062 0 -0.000335814 -0.000335814 -1.42955e-05 26.295 3044.5 3661.46 
615 0.139 0.139 0 -0.000354711 -0.000354711 -3.22629e-05 11.1687 1417.72 1727.84 
655 0.112 0.112 0 -0.000667968 -0.000667968 -2.42504e-05 9.61653 833.532 1182.97 
695 0.1938 0.1938 0 -0.00148907 -0.00148907 6.71209e-07 16.6422 653.335 1118.23 
735 0.254 0.254 0 -0.00206638 -0.00206638 1.93337e-05 21.9644 1177.14 1625.73 
775 0.2426 0.2426 0 -0.00198054 -0.00198054 1.46504e-05 21.2353 1203.89 1784.22 
815 0.1826 0.1826 0 -0.00132973 -0.00132973 -3.59024e-05 15.4817 954.749 1369.32 
855 0.0978 0.0978 0 -0.000471687 -0.000471687 3.33369e-05 8.08039 693.726 989.399 
895 0.16 0.16 0 -0.0003599 -0.0003599 -2.79349e-06 13.2687 1609.63 1925.9 
935 0.3594 0.3594 0 -0.000254899 -0.000254899 3.42375e-05 30.7459 3390.91 4024.5 
975 0.719 0.719 0 0.000505258 0.000505258 -3.44018e-05 62.5692 6678.18 8410.58 
16 1.4154 1.4154 0 0.00335202 0.00335202 -1.05568e-05 125.639 10710.7 14270.6 
56 2.5366 2.5366 0 0.0100356 0.0100356 -4.71637e-05 226.391 18315.5 24645.5 
96 4.2552 4.2552 0 0.0242047 0.0242047 -9.04003e-05 381.34 33707.3 45525.1 