ITEM: TIMESTEP
25000
ITEM: NUMBER OF SURFS
1000
ITEM: BOX BOUNDS oo rr pp
0 0.3
0 0.3
-0.5 0.5
ITEM: SURFS id f_4[1] f_4[2] f_4[3] f_4[4] f_4[5] f_4[6] f_4[7] f_4[8] f_4[9] 
1 0.546 0.546 0 6.04423e-06 6.04423e-06 -2.74785e-08 0.0531174 54.7484 55.2302 
81 2.6 2.6 0 4.24231e-05 4.24231e-05 -3.22048e-09 0.377675 302.75 304.846 
161 4.6038 4.6038 0 9.09134e-05 9.09134e-05 1.73164e-07 0.933252 534.936 539.656 
241 5.3936 5.3936 0 0.00011498 0.00011498 3.73568e-08 1.21968 620.954 627.026 
321 4.8948 4.8948 0 9.95385e-05 9.95385e-05 -7.43462e-08 1.03526 566.415 571.627 
401 3.1228 3.1228 0 5.3409e-05 5.3409e-05 -5.41025e-08 0.499475 363.339 366.148 
481 0.8966 0.8966 0 1.15359e-05 1.15359e-05 9.14076e-08 0.0887248 96.2798 97.1064 
561 0.0948 0.0948 0 1.68775e-07 1.68775e-07 -8.68113e-09 0.0110846 5.93248 6.20785 
641 0.0262 0.0262 0 -5.69079e-08 -5.69079e-08 -3.05201e-09 0.00267828 1.63114 1.65838 
721 0.0034 0.0034 0 -1.18032e-08 -1.18032e-08 -5.82263e-09 0.000187171 0.146053 0.151344 
801 0.0076 0.0076 0 -1.96795e-08 -1.96795e-08 3.36105e-09 0.000471255 0.40121 0.40991 
881 0.0388 0.0388 0 -5.20823e-08 -5.20823e-08 -2.25919e-08 0.00410742 2.15632 2.30202 
961 0.1526 0.1526 0 7.52279e-07 7.52279e-07 4.8155e-09 0.016587 10.4281 10.8649 
2 0.556 0.556 0 6.25282e-06 6.25282e-06 -1.06922e-08 0.0532301 56.2167 57.2952 
82 2.686 2.686 0 4.39697e-05 4.39697e-05 8.2434e-08 0.390092 312.322 314.31 
162 4.6712 4.6712 0 9.24269e-05 9.24269e-05 -2.40802e-08 0.947915 546.691 550.9 
242 5.462 5.462 0 0.000116405 0.000116405 -7.53746e-08 1.23491 631.387 637.642 
322 4.854 4.854 0 9.83073e-05 9.83073e-05 9.9292e-08 1.02108 563.257 568.228 
402 3.103 3.103 0 5.28453e-05 5.28453e-05 2.8953e-08 0.489822 359.94 363.136 
482 0.8772 0.8772 0 1.12491e-05 1.12491e-05 -6.77068e-09 0.0876937 96.136 97.3111 
562 0.0882 0.0882 0 1.79728e-07 1.79728e-07 -1.76147e-08 0.0102277 5.45759 5.87242 
642 0.024 0.024 0 -5.10533e-08 -5.10533e-08 2.77113e-09 0.00258523 1.73323 1.85751 
722 0.0042 0.0042 0 -1.51239e-08 -1.51239e-08 3.02483e-09 0.000226152 0.16077 0.180959 
802 0.007 0.007 0 -1.96991e-08 -1.96991e-08 9.01458e-10 0.000517242 0.668729 0.683888 
882 0.0396 0.0396 0 -5.73503e-08 -5.73503e-08 1.46718e-08 0.00437245 2.25965 2.47841 
962 0.1544 0.1544 0 7.81693e-07 7.81693e-07 -2.39249e-08 0.01663 10.1126 10.708 
3 0.5746 0.5746 0 6.49921e-06 6.49921e-06 3.988e-08 0.0546052 57.8557 58.699 
83 2.7314 2.7314 0 4.50412e-05 4.50412e-05 7.75167e-09 0.39953 321.063 323.412 
163 4.5614 4.5614 0 9.02311e-05 9.02311e-05 -3.23271e-07 0.928334 529.256 533.756 
243 5.3642 5.3642 0 0.00011464 0.00011464 8.85607e-08 1.21607 621.146 627.004 
323 4.8802 4.8802 0 9.89375e-05 9.89375e-05 5.23805e-08 1.02879 567.579 571.168 
403 3.0782 3.0782 0 5.25177e-05 5.25177e-05 3.05449e-08 0.486649 359.058 361.683 
483 0.8352 0.8352 0 1.03541e-05 1.03541e-05 4.91982e-08 0.0830508 87.9987 88.9181 
563 0.0916 0.0916 0 1.64355e-07 1.64355e-07 5.30506e-09 0.0108723 5.38541 5.81774 
643 0.0278 0.0278 0 -4.9676e-08 -4.9676e-08 -6.28625e-09 0.00264786 1.76337 1.80126 
723 0.0032 0.0032 0 -1.29536e-08 -1.29536e-08 4.43986e-10 0.000190451 0.225044 0.230018 
803 0.0064 0.0064 0 -1.63485e-08 -1.63485e-08 -1.10388e-08 0.000450857 0.493466 0.517354 
883 0.049 0.049 0 -5.70875e-08 -5.70875e-08 2.94158e-08 0.00561563 3.22459 3.38399 
963 0.1546 0.1546 0 8.31097e-07 8.31097e-07 1.96018e-08 0.015836 10.4299 10.9646 
4 0.5694 0.5694 0 6.47111e-06 6.47111e-06 7.30304e-09 0.0548206 57.6852 58.5935 
84 2.745 2.745 0 4.5256e-05 4.5256e-05 1.85916e-08 0.404948 319.695 321.984 
164 4.6672 4.6672 0 9.25803e-05 9.25803e-05 1.53696e-07 0.953708 542.189 546.957 
244 5.3808 5.3808 0 0.000114816 0.000114816 -7.76779e-08 1.21807 623.977 629.559 
324 4.8318 4.8318 0 9.75787e-05 9.75787e-05 1.33432e-08 1.0143 559.797 565.6 
404 3.0818 3.0818 0 5.21078e-05 5.21078e-05 3.85596e-08 0.482104 357.59 359.883 
484 0.8136 0.8136 0 1.00601e-05 1.00601e-05 1.51985e-07 0.0811433 86.2214 87.5187 
564 0.083 0.083 0 1.27637e-07 1.27637e-07 3.11026e-08 0.0100179 4.83148 5.08457 
644 0.0232 0.0232 0 -3.83571e-08 -3.83571e-08 -1.08973e-08 0.00225648 1.72164 1.76479 
724 0.002 0.002 0 -7.84506e-09 -7.84506e-09 -2.07046e-09 0.000125011 0.166272 0.169057 
804 0.009 0.009 0 -3.78723e-08 -3.78723e-08 3.99608e-09 0.000712831 0.478449 0.476439 
884 0.0408 0.0408 0 -4.1591e-08 -4.1591e-08 -4.2769e-10 0.00438377 2.35259 2.55402 
964 0.1604 0.1604 0 8.76883e-07 8.76883e-07 6.15646e-09 0.0168134 11.2805 11.6926 
5 0.604 0.604 0 6.98996e-06 6.98996e-06 -6.42763e-08 0.0587339 62.0019 62.7848 
85 2.7396 2.7396 0 4.5148e-05 4.5148e-05 7.58878e-08 0.405573 318.104 319.559 
165 4.6988 4.6988 0 9.36051e-05 9.36051e-05 -6.86001e-09 0.963978 545.708 550.36 
245 5.4414 5.4414 0 0.000116486 0.000116486 1.60368e-07 1.23579 628.704 634.703 
325 4.8152 4.8152 0 9.74525e-05 9.74525e-05 -2.77199e-08 1.01013 561.656 566.04 
405 3.0348 3.0348 0 5.1388e-05 5.1388e-05 -3.44232e-08 0.473636 354.888 357.227 
485 0.7606 0.7606 0 9.28787e-06 9.28787e-06 -4.90831e-08 0.0751965 78.721 79.8291 
565 0.0878 0.0878 0 1.30411e-07 1.30411e-07 -1.77879e-08 0.0105098 5.04543 5.35811 
645 0.0234 0.0234 0 -5.70703e-08 -5.70703e-08 -1.43566e-08 0.0024268 1.54877 1.58835 
725 0.0018 0.0018 0 -6.18924e-09 -6.18924e-09 -5.19012e-09 9.62761e-05 0.166539 0.166327 
805 0.0102 0.0102 0 -3.05797e-08 -3.05797e-08 1.00553e-08 0.000706622 0.662261 0.672183 
885 0.0392 0.0392 0 -5.60756e-08 -5.60756e-08 4.13927e-09 0.0043952 2.04039 2.25921 
965 0.1634 0.1634 0 8.49416e-07 8.49416e-07 3.80337e-08 0.0172709 11.1788 11.7088 
6 0.6262 0.6262 0 7.39507e-06 7.39507e-06 -3.63626e-08 0.0607098 64.0265 64.6343 
86 2.7732 2.7732 0 4.58703e-05 4.58703e-05 1.82136e-07 0.415997 321.171 323.463 
166 4.658 4.658 0 9.2648e-05 9.2648e-05 -4.43053e-08 0.956088 539.218 542.802 
246 5.4214 5.4214 0 0.000115711 0.000115711 4.39071e-08 1.22765 625.67 632.074 
326 4.779 4.779 0 9.63112e-05 9.63112e-05 -3.95313e-07 0.996454 556.018 560.727 
406 2.9552 2.9552 0 5.00251e-05 5.00251e-05 1.86935e-08 0.460713 344.014 345.819 
486 0.7712 0.7712 0 9.49695e-06 9.49695e-06 -1.00465e-07 0.0762533 81.0385 81.8334 
566 0.0874 0.0874 0 1.44521e-07 1.44521e-07 -2.90726e-08 0.0100349 4.80925 5.05647 
646 0.0264 0.0264 0 -5.80575e-08 -5.80575e-08 -4.88401e-10 0.00259461 1.73618 1.88009 
726 0.0026 0.0026 0 -1.25119e-08 -1.25119e-08 -3.84355e-09 0.000161597 0.137563 0.134552 
806 0.0084 0.0084 0 -2.63805e-08 -2.63805e-08 -4.6224e-09 0.000640215 0.609207 0.618415 
886 0.0494 0.0494 0 -3.75101e-08 -3.75101e-08 -5.71461e-09 0.00530478 3.066 3.27536 
966 0.1694 0.1694 0 8.82914e-07 8.82914e-07 -1.19328e-08 0.0182769 11.8523 12.341 
7 0.6604 0.6604 0 7.70417e-06 7.70417e-06 1.02475e-08 0.0638509 67.3372 68.1666 
87 2.8556 2.8556 0 4.72602e-05 4.72602e-05 8.39313e-09 0.427862 333.885 336.761 
167 4.7332 4.7332 0 9.43012e-05 9.43012e-05 -6.39851e-08 0.972504 556.271 560.428 
247 5.4686 5.4686 0 0.000116949 0.000116949 3.19745e-08 1.24082 632.59 637.62 
327 4.8342 4.8342 0 9.6991e-05 9.6991e-05 8.83229e-08 1.00127 567.886 572.256 
407 2.9632 2.9632 0 4.97677e-05 4.97677e-05 -1.60882e-07 0.45754 343.214 345.377 
487 0.7492 0.7492 0 9.16638e-06 9.16638e-06 -3.60642e-08 0.0734409 78.607 79.4228 
567 0.0786 0.0786 0 8.80833e-08 8.80833e-08 -2.68997e-08 0.00907626 3.92608 4.22061 
647 0.0208 0.0208 0 -4.81379e-08 -4.81379e-08 1.96611e-08 0.00206352 1.45893 1.5569 
727 0.002 0.002 0 -7.03492e-09 -7.03492e-09 9.43444e-09 0.000104054 0.115704 0.152369 
807 0.0084 0.0084 0 -2.60251e-08 -2.60251e-08 -2.19212e-09 0.000643418 0.526003 0.568045 
887 0.0444 0.0444 0 -4.31326e-08 -4.31326e-08 -7.35498e-09 0.00484795 2.57302 2.78763 
967 0.175 0.175 0 1.06734e-06 1.06734e-06 -3.4585e-08 0.0184974 12.8855 13.5339 
8 0.6636 0.6636 0 8.00816e-06 8.00816e-06 -3.41471e-08 0.0640321 70.2303 70.8728 
88 2.8786 2.8786 0 4.80183e-05 4.80183e-05 3.58207e-08 0.435377 335.651 337.958 
168 4.7328 4.7328 0 9.41135e-05 9.41135e-05 -1.15748e-07 0.971427 551.41 557.196 
248 5.4812 5.4812 0 0.000117315 0.000117315 -1.02002e-07 1.24474 630.142 636.057 
328 4.7416 4.7416 0 9.53126e-05 9.53126e-05 -4.98347e-08 0.986493 546.785 551.601 
408 2.8886 2.8886 0 4.86967e-05 4.86967e-05 1.70347e-07 0.444718 338.121 340.102 
488 0.736 0.736 0 8.9605e-06 8.9605e-06 1.80958e-08 0.0721054 76.7163 77.5939 
568 0.0828 0.0828 0 1.36122e-07 1.36122e-07 6.64362e-09 0.00898629 4.64797 5.00637 
648 0.0208 0.0208 0 -3.8533e-08 -3.8533e-08 3.592e-09 0.00213134 1.64273 1.73323 
728 0.0014 0.0014 0 -5.47418e-09 -5.47418e-09 -9.70112e-10 7.9015e-05 0.0937411 0.0959296 
808 0.0102 0.0102 0 -2.78222e-08 -2.78222e-08 1.50487e-09 0.00073115 0.598289 0.627854 
888 0.0366 0.0366 0 -3.08092e-08 -3.08092e-08 -3.66548e-08 0.0041021 2.31453 2.42575 
968 0.1858 0.1858 0 1.09934e-06 1.09934e-06 1.07331e-09 0.0196256 13.1583 13.815 
9 0.6928 0.6928 0 8.29692e-06 8.29692e-06 -1.07893e-07 0.0666634 71.2271 72.1988 
89 2.839 2.839 0 4.73135e-05 4.73135e-05 1.57942e-07 0.431786 330.89 333.217 
169 4.7474 4.7474 0 9.50615e-05 9.50615e-05 1.94128e-07 0.981441 553.039 558.082 
249 5.3808 5.3808 0 0.00011488 0.00011488 -2.04451e-08 1.21891 619.861 625.918 
329 4.7316 4.7316 0 9.49875e-05 9.49875e-05 5.12771e-08 0.981713 553.486 557.907 
409 2.9002 2.9002 0 4.84861e-05 4.84861e-05 -8.02618e-08 0.440586 338.456 339.911 
489 0.7106 0.7106 0 8.63277e-06 8.63277e-06 7.35413e-08 0.0688832 75.1562 76.0576 
569 0.077 0.077 0 1.0442e-07 1.0442e-07 -2.54701e-09 0.00906734 4.61763 5.01579 
649 0.0236 0.0236 0 -4.5902e-08 -4.5902e-08 6.34059e-09 0.00233171 1.56245 1.67918 
729 0.0014 0.0014 0 -5.00325e-09 -5.00325e-09 4.95317e-09 7.09347e-05 0.089636 0.103932 
809 0.0088 0.0088 0 -2.19085e-08 -2.19085e-08 -8.47844e-09 0.000619663 0.655098 0.674326 
889 0.0428 0.0428 0 -8.19535e-08 -8.19535e-08 1.38166e-08 0.00491837 2.29698 2.36336 
969 0.1884 0.1884 0 1.17939e-06 1.17939e-06 -4.73542e-08 0.0197148 14.0112 14.4727 
10 0.6976 0.6976 0 8.33262e-06 8.33262e-06 2.69584e-08 0.0676059 71.8208 72.558 
90 2.8686 2.8686 0 4.7946e-05 4.7946e-05 -2.63852e-08 0.435643 334.097 336.251 
170 4.791 4.791 0 9.581e-05 9.581e-05 -3.38452e-08 0.990626 554.353 558.891 
250 5.4924 5.4924 0 0.000117457 0.000117457 -1.43146e-07 1.24627 631.777 638.096 
330 4.7326 4.7326 0 9.47326e-05 9.47326e-05 -1.33037e-07 0.978404 551.233 556.445 
410 2.843 2.843 0 4.73138e-05 4.73138e-05 -8.53506e-08 0.430132 330.152 332.142 
490 0.6806 0.6806 0 8.26472e-06 8.26472e-06 -5.05786e-08 0.066153 71.9216 72.5723 
570 0.0732 0.0732 0 8.53291e-08 8.53291e-08 -1.56418e-08 0.00880728 4.71888 4.96358 
650 0.0232 0.0232 0 -5.38454e-08 -5.38454e-08 6.58193e-09 0.00216506 1.19336 1.26574 
730 0.0016 0.0016 0 -5.69842e-09 -5.69842e-09 3.22776e-09 7.64574e-05 0.0859625 0.0800819 
810 0.009 0.009 0 -2.66771e-08 -2.66771e-08 8.53121e-09 0.000613519 0.372323 0.376595 
890 0.041 0.041 0 -2.18173e-08 -2.18173e-08 2.20567e-08 0.00461668 2.50271 2.72475 
970 0.2058 0.2058 0 1.26113e-06 1.26113e-06 8.54175e-08 0.0211633 14.2472 14.7732 
11 0.7478 0.7478 0 9.09289e-06 9.09289e-06 -5.53251e-08 0.0725884 77.2023 78.3242 
91 2.959 2.959 0 4.9795e-05 4.9795e-05 -1.16261e-07 0.456042 344.937 347.464 
171 4.7342 4.7342 0 9.51717e-05 9.51717e-05 1.3445e-07 0.983798 556.649 560.78 
251 5.492 5.492 0 0.000117514 0.000117514 -3.0099e-07 1.24688 639.116 645.831 
331 4.704 4.704 0 9.38186e-05 9.38186e-05 -9.95187e-08 0.968349 547.477 552.197 
411 2.8136 2.8136 0 4.68861e-05 4.68861e-05 5.99666e-09 0.424868 326.168 327.636 
491 0.6618 0.6618 0 7.85013e-06 7.85013e-06 1.75863e-08 0.0634743 69.1387 69.9813 
571 0.0756 0.0756 0 5.98624e-08 5.98624e-08 1.358e-08 0.00862978 3.88034 4.05018 
651 0.0216 0.0216 0 -4.92126e-08 -4.92126e-08 1.35301e-09 0.00201613 1.17951 1.19871 
731 0 0 0 0 0 0 0 0 0 
811 0.0088 0.0088 0 -2.30373e-08 -2.30373e-08 6.23659e-09 0.000588123 0.550647 0.564117 
891 0.0422 0.0422 0 -4.64633e-08 -4.64633e-08 1.6284e-08 0.0049723 2.68016 2.82283 
971 0.1852 0.1852 0 1.25965e-06 1.25965e-06 -3.36336e-08 0.0192298 14.512 15.0198 
12 0.7428 0.7428 0 9.12805e-06 9.12805e-06 6.48381e-08 0.0736537 77.724 78.628 
92 2.95 2.95 0 4.96881e-05 4.96881e-05 1.61089e-07 0.454686 341.392 344.104 
172 4.796 4.796 0 9.63356e-05 9.63356e-05 5.03618e-08 0.997046 556.314 560.94 
252 5.4306 5.4306 0 0.000116086 0.000116086 3.45579e-08 1.23168 627.576 632.765 
332 4.6418 4.6418 0 9.23501e-05 9.23501e-05 -2.50259e-07 0.953293 539.28 543.334 
412 2.8142 2.8142 0 4.64897e-05 4.64897e-05 1.22487e-07 0.424692 323.399 325.36 
492 0.6172 0.6172 0 7.23198e-06 7.23198e-06 -1.60515e-08 0.0594737 62.7971 63.5629 
572 0.0772 0.0772 0 6.90561e-08 6.90561e-08 -4.43002e-09 0.00920247 4.54123 4.73756 
652 0.0232 0.0232 0 -3.98683e-08 -3.98683e-08 -2.62162e-08 0.00204171 1.49439 1.67891 
732 0.0002 0.0002 0 -1.56599e-09 -1.56599e-09 5.05951e-10 1.3113e-05 0.00757353 0.0192579 
812 0.0094 0.0094 0 -2.9534e-08 -2.9534e-08 4.01386e-09 0.000731671 0.715721 0.714759 
892 0.0458 0.0458 0 -5.85984e-08 -5.85984e-08 -2.70692e-08 0.00521144 2.69498 2.84893 
972 0.1954 0.1954 0 1.2842e-06 1.2842e-06 1.07584e-08 0.0204812 14.8085 15.4611 
13 0.7618 0.7618 0 9.38895e-06 9.38895e-06 -5.84265e-08 0.0756115 80.1837 81.1066 
93 2.9604 2.9604 0 5.01951e-05 5.01951e-05 1.37009e-07 0.462041 345.665 348.245 
173 4.8118 4.8118 0 9.68001e-05 9.68001e-05 -1.83437e-07 1.003 558.371 563.22 
253 5.4382 5.4382 0 0.00011648 0.00011648 3.42459e-08 1.23588 633.958 641.067 
333 4.6708 4.6708 0 9.29192e-05 9.29192e-05 -3.12085e-07 0.958681 540.418 544.501 
413 2.83 2.83 0 4.67255e-05 4.67255e-05 8.59327e-08 0.422108 328.994 331.125 
493 0.6278 0.6278 0 7.37226e-06 7.37226e-06 4.89648e-08 0.0610716 65.2084 65.9407 
573 0.0714 0.0714 0 7.07797e-08 7.07797e-08 3.47356e-08 0.00832155 3.91782 4.14272 
653 0.0254 0.0254 0 -5.15986e-08 -5.15986e-08 -9.30712e-09 0.00238265 1.74704 1.84474 
733 0.0012 0.0012 0 -8.03342e-09 -8.03342e-09 -4.57393e-10 8.81607e-05 0.0497952 0.084655 
813 0.0118 0.0118 0 -3.10346e-08 -3.10346e-08 2.46062e-09 0.00085478 0.808476 0.825307 
893 0.0396 0.0396 0 -2.45457e-08 -2.45457e-08 1.23421e-08 0.00427772 2.37344 2.60685 
973 0.2094 0.2094 0 1.41889e-06 1.41889e-06 -7.11916e-08 0.0218441 15.9981 16.5448 
14 0.7972 0.7972 0 9.96801e-06 9.96801e-06 -9.25889e-08 0.0784285 85.6147 86.3382 
94 3.0084 3.0084 0 5.08019e-05 5.08019e-05 1.94208e-08 0.469287 349.491 351.873 
174 4.7906 4.7906 0 9.66474e-05 9.66474e-05 -4.39733e-08 1.00195 556.029 560.062 
254 5.4366 5.4366 0 0.000116563 0.000116563 8.39323e-08 1.23664 631.15 636.728 
334 4.6416 4.6416 0 9.23511e-05 9.23511e-05 1.50923e-07 0.950289 540.822 545.142 
414 2.7776 2.7776 0 4.60226e-05 4.60226e-05 3.58385e-08 0.412791 325.36 326.966 
494 0.588 0.588 0 6.93594e-06 6.93594e-06 1.01359e-08 0.0566161 60.8346 61.5545 
574 0.0738 0.0738 0 7.80941e-08 7.80941e-08 1.53103e-08 0.00859943 4.26629 4.66874 
654 0.0182 0.0182 0 -3.59508e-08 -3.59508e-08 4.98106e-13 0.00159206 0.983969 1.00122 
734 0.0008 0.0008 0 -3.41176e-09 -3.41176e-09 -8.34009e-10 3.83378e-05 0.0041143 0.000136292 
814 0.0108 0.0108 0 -3.28274e-08 -3.28274e-08 1.70059e-09 0.000799345 0.600616 0.670165 
894 0.0474 0.0474 0 -5.60082e-08 -5.60082e-08 1.00289e-08 0.00557987 2.78794 2.85675 
974 0.2224 0.2224 0 1.601e-06 1.601e-06 6.57627e-09 0.0227737 16.6704 17.1595 
15 0.7962 0.7962 0 1.01692e-05 1.01692e-05 5.26968e-08 0.0781797 86.4054 87.4949 
95 3.0488 3.0488 0 5.17114e-05 5.17114e-05 7.75032e-09 0.476807 354.759 357.5 
175 4.84 4.84 0 9.76169e-05 9.76169e-05 3.39536e-07 1.01329 558.987 563.885 
255 5.4478 5.4478 0 0.000116499 0.000116499 1.54099e-07 1.23599 631.708 637.846 
335 4.6206 4.6206 0 9.16359e-05 9.16359e-05 -3.14786e-07 0.942603 536.69 541.818 
415 2.722 2.722 0 4.48219e-05 4.48219e-05 1.84463e-07 0.404081 316.547 318.32 
495 0.5882 0.5882 0 6.55506e-06 6.55506e-06 1.20918e-07 0.0567859 58.0757 58.7381 
575 0.0716 0.0716 0 4.60831e-08 4.60831e-08 9.19258e-09 0.00793494 3.58405 3.81362 
655 0.0188 0.0188 0 -3.62256e-08 -3.62256e-08 3.02558e-09 0.00163089 1.19637 1.22367 
735 0 0 0 0 0 0 0 0 0 
815 0.0114 0.0114 0 -3.51326e-08 -3.51326e-08 7.77333e-09 0.000892516 0.61421 0.631975 
895 0.049 0.049 0 -3.50076e-08 -3.50076e-08 9.97015e-09 0.00566606 2.96164 3.09157 
975 0.2328 0.2328 0 1.67164e-06 1.67164e-06 1.97211e-08 0.023053 17.9067 18.4274 
16 0.8412 0.8412 0 1.06412e-05 1.06412e-05 -6.72046e-08 0.0832877 89.84 90.7721 
96 3.0502 3.0502 0 5.1882e-05 5.1882e-05 -2.39033e-07 0.480131 356.971 358.202 
176 4.8848 4.8848 0 9.86131e-05 9.86131e-05 -3.17706e-07 1.0248 565.355 570.089 
256 5.4088 5.4088 0 0.00011588 0.00011588 -2.36104e-07 1.22936 628.479 634.165 
336 4.6062 4.6062 0 9.08654e-05 9.08654e-05 9.30177e-08 0.934471 536.58 541.415 
416 2.6958 2.6958 0 4.43975e-05 4.43975e-05 2.15868e-07 0.395726 314.688 316.631 
496 0.5644 0.5644 0 6.43339e-06 6.43339e-06 4.54834e-09 0.0542411 56.9171 57.7754 
576 0.066 0.066 0 5.05186e-08 5.05186e-08 -5.79406e-08 0.00807653 4.04686 4.30396 
656 0.026 0.026 0 -5.11568e-08 -5.11568e-08 -1.70026e-09 0.00240727 1.96759 2.00014 
736 0.0006 0.0006 0 -3.01935e-09 -3.01935e-09 -1.13684e-09 3.86332e-05 0.0125817 0.0280045 
816 0.013 0.013 0 -3.40333e-08 -3.40333e-08 1.22369e-10 0.0010175 0.926481 0.944936 
896 0.0438 0.0438 0 -5.90544e-08 -5.90544e-08 3.95396e-08 0.00512377 2.28136 2.32527 
976 0.228 0.228 0 1.71339e-06 1.71339e-06 -3.96603e-09 0.0231296 18.6328 19.3429 
17 0.8516 0.8516 0 1.09e-05 1.09e-05 2.03782e-08 0.0838585 91.4353 92.1532 
97 3.0256 3.0256 0 5.15331e-05 5.15331e-05 1.55107e-07 0.479687 352.665 355.197 
177 4.8366 4.8366 0 9.79849e-05 9.79849e-05 9.39058e-08 1.01868 561.959 567.101 
257 5.4476 5.4476 0 0.000116806 0.000116806 1.70074e-07 1.23904 630.084 636.798 
337 4.6158 4.6158 0 9.14069e-05 9.14069e-05 -1.35346e-08 0.937962 537.38 542.179 
417 2.689 2.689 0 4.40712e-05 4.40712e-05 -4.09139e-08 0.393593 310.359 312.836 
497 0.5466 0.5466 0 6.11764e-06 6.11764e-06 -2.62119e-08 0.0527766 54.2572 55.049 
577 0.0758 0.0758 0 2.02618e-09 2.02618e-09 1.82245e-08 0.00915018 4.30856 4.55307 
657 0.0264 0.0264 0 -5.90685e-08 -5.90685e-08 7.66046e-09 0.00228886 1.51572 1.59633 
737 0.0004 0.0004 0 -2.24801e-09 -2.24801e-09 -1.29999e-10 2.35303e-05 0.00515564 0.00859016 
817 0.0096 0.0096 0 -2.70019e-08 -2.70019e-08 7.26972e-09 0.000754765 0.609399 0.604785 
897 0.043 0.043 0 -4.75658e-08 -4.75658e-08 -1.20776e-10 0.00498878 2.43147 2.52701 
977 0.2324 0.2324 0 1.75172e-06 1.75172e-06 2.69932e-09 0.023594 18.993 19.8394 
18 0.9142 0.9142 0 1.1629e-05 1.1629e-05 -1.92389e-08 0.0918683 97.8813 98.4118 
98 3.1084 3.1084 0 5.31318e-05 5.31318e-05 6.34085e-08 0.493894 361.897 364.207 
178 4.8764 4.8764 0 9.86395e-05 9.86395e-05 -2.72174e-08 1.02533 566.85 571.929 
258 5.4324 5.4324 0 0.000116577 0.000116577 4.2966e-08 1.23674 634.611 639.466 
338 4.5488 4.5488 0 8.98497e-05 8.98497e-05 1.17775e-07 0.921661 534.25 538.8 
418 2.6674 2.6674 0 4.36931e-05 4.36931e-05 1.02926e-07 0.386299 311.696 313.359 
498 0.529 0.529 0 5.89355e-06 5.89355e-06 1.12105e-07 0.0514353 53.2906 54.0443 
578 0.068 0.068 0 1.57987e-08 1.57987e-08 -2.12046e-08 0.00845582 3.77108 4.03729 
658 0.0162 0.0162 0 -3.26636e-08 -3.26636e-08 7.74579e-09 0.00137085 0.875225 0.940358 
738 0.0004 0.0004 0 -1.17962e-09 -1.17962e-09 -1.16553e-09 1.49086e-05 0.013811 0.0113444 
818 0.0104 0.0104 0 -2.97491e-08 -2.97491e-08 4.49669e-10 0.000838119 0.783908 0.81907 
898 0.0498 0.0498 0 -3.72893e-08 -3.72893e-08 4.23121e-08 0.00584607 2.99257 3.0963 
978 0.2458 0.2458 0 1.99999e-06 1.99999e-06 6.69254e-08 0.0242636 20.765 21.5417 
19 0.8928 0.8928 0 1.13644e-05 1.13644e-05 2.45056e-08 0.0896038 96.1425 97.0932 
99 3.1962 3.1962 0 5.49694e-05 5.49694e-05 7.198e-08 0.512379 372.832 375.263 
179 4.9352 4.9352 0 0.00010019 0.00010019 -1.01293e-07 1.04316 573.113 578.048 
259 5.4832 5.4832 0 0.000116918 0.000116918 8.64338e-08 1.24021 633.892 640.189 
339 4.545 4.545 0 8.9417e-05 8.9417e-05 2.30233e-07 0.916915 529.198 533.528 
419 2.6354 2.6354 0 4.29073e-05 4.29073e-05 6.18415e-08 0.37844 306.755 308.917 
499 0.5018 0.5018 0 5.48673e-06 5.48673e-06 1.04005e-07 0.0480144 49.1686 49.796 
579 0.0676 0.0676 0 4.65061e-08 4.65061e-08 -2.42146e-08 0.00810356 4.20386 4.39973 
659 0.0176 0.0176 0 -4.58373e-08 -4.58373e-08 -2.17764e-09 0.00161006 1.05957 1.17293 
739 0 0 0 0 0 0 0 0 0 
819 0.0112 0.0112 0 -3.42365e-08 -3.42365e-08 5.4955e-09 0.000933501 0.631867 0.619102 
899 0.0516 0.0516 0 -2.95977e-08 -2.95977e-08 1.52732e-08 0.00600689 3.24312 3.44443 
979 0.2686 0.2686 0 2.09519e-06 2.09519e-06 3.45925e-08 0.0264709 21.2082 22.0071 
20 0.9272 0.9272 0 1.20666e-05 1.20666e-05 6.04089e-08 0.0930876 101.401 102.341 
100 3.182 3.182 0 5.5014e-05 5.5014e-05 2.14125e-08 0.513632 372.471 374.621 
180 4.8988 4.8988 0 9.97632e-05 9.97632e-05 -1.76229e-08 1.0387 569.24 573.779 
260 5.4354 5.4354 0 0.000116606 0.000116606 -9.26993e-08 1.23662 626.359 632.315 
340 4.5578 4.5578 0 8.96169e-05 8.96169e-05 2.06769e-08 0.918154 531.78 536.075 
420 2.6286 2.6286 0 4.26921e-05 4.26921e-05 3.73584e-09 0.379183 302.657 304.526 
500 0.5068 0.5068 0 5.62102e-06 5.62102e-06 3.85183e-08 0.0488257 51.0199 51.8209 
580 0.0678 0.0678 0 2.01624e-08 2.01624e-08 6.02029e-09 0.00805401 3.87105 4.20485 
660 0.021 0.021 0 -4.65076e-08 -4.65076e-08 1.91612e-08 0.00201695 1.66002 1.65581 
740 0.0004 0.0004 0 -3.12212e-09 -3.12212e-09 -1.21644e-09 3.1863e-05 0.00926259 0.00849277 
820 0.0126 0.0126 0 -3.8105e-08 -3.8105e-08 7.50608e-09 0.00106662 0.821226 0.859 
900 0.0474 0.0474 0 -6.83603e-08 -6.83603e-08 -1.86373e-08 0.00571202 2.57906 2.71697 
980 0.267 0.267 0 2.19478e-06 2.19478e-06 -4.87202e-08 0.0262655 22.376 23.0538 
21 0.9742 0.9742 0 1.24427e-05 1.24427e-05 -1.43807e-07 0.0985172 104.373 104.892 
101 3.2206 3.2206 0 5.55358e-05 5.55358e-05 1.13847e-07 0.519508 375.686 377.83 
181 4.9142 4.9142 0 9.98127e-05 9.98127e-05 -1.8277e-08 1.03921 569.06 574.283 
261 5.428 5.428 0 0.00011558 0.00011558 -3.22952e-07 1.22571 629.36 634.633 
341 4.5272 4.5272 0 8.89168e-05 8.89168e-05 2.15576e-07 0.910809 525.86 530.269 
421 2.5446 2.5446 0 4.12097e-05 4.12097e-05 -4.35727e-08 0.362804 296.573 298.327 
501 0.4872 0.4872 0 5.13149e-06 5.13149e-06 1.44577e-08 0.0467783 46.2029 47.3396 
581 0.0622 0.0622 0 3.14538e-08 3.14538e-08 3.77287e-08 0.00758345 3.77315 3.95055 
661 0.0184 0.0184 0 -4.31027e-08 -4.31027e-08 1.12445e-08 0.00172163 1.37374 1.36874 
741 0.0006 0.0006 0 -4.03095e-09 -4.03095e-09 -7.39258e-10 4.28595e-05 0.00532306 0.00519088 
821 0.0114 0.0114 0 -3.61823e-08 -3.61823e-08 5.72076e-09 0.00102113 0.899701 0.979391 
901 0.0514 0.0514 0 -3.01292e-08 -3.01292e-08 2.84122e-09 0.0058886 2.91442 3.3029 
981 0.2696 0.2696 0 2.18068e-06 2.18068e-06 6.37544e-09 0.0273697 22.1269 22.701 
22 0.965 0.965 0 1.2433e-05 1.2433e-05 2.06965e-09 0.0999798 103.032 104.301 
102 3.2296 3.2296 0 5.57449e-05 5.57449e-05 -2.30888e-08 0.52291 377.051 379.619 
182 4.9504 4.9504 0 0.00010155 0.00010155 2.90968e-07 1.05941 574.31 579.022 
262 5.4058 5.4058 0 0.000115512 0.000115512 1.70162e-07 1.22497 626.446 632.162 
342 4.5402 4.5402 0 8.90696e-05 8.90696e-05 -1.66235e-08 0.909712 534.346 538.604 
422 2.5296 2.5296 0 4.06457e-05 4.06457e-05 -1.32541e-07 0.358513 292.702 294.965 
502 0.4832 0.4832 0 5.22258e-06 5.22258e-06 4.52438e-08 0.0458422 46.8079 47.7816 
582 0.0696 0.0696 0 3.44262e-08 3.44262e-08 -8.04673e-10 0.00841429 4.41621 4.77511 
662 0.0202 0.0202 0 -4.19446e-08 -4.19446e-08 2.02108e-08 0.00205193 1.89756 1.93073 
742 0.0002 0.0002 0 -1.14943e-09 -1.14943e-09 1.26977e-09 1.16056e-05 -0.00251449 0.00783408 
822 0.0128 0.0128 0 -3.64502e-08 -3.64502e-08 1.88819e-09 0.00101063 0.771606 0.77735 
902 0.0546 0.0546 0 -4.83607e-08 -4.83607e-08 2.43091e-08 0.0063636 2.57725 2.82101 
982 0.2954 0.2954 0 2.43061e-06 2.43061e-06 3.143e-08 0.0294337 24.4044 24.6514 
23 1.0074 1.0074 0 1.31552e-05 1.31552e-05 9.86008e-09 0.103153 108.48 109.537 
103 3.2402 3.2402 0 5.62892e-05 5.62892e-05 -1.54029e-07 0.53184 378.272 381.45 
183 4.9388 4.9388 0 0.00010079 0.00010079 8.88389e-08 1.05121 576.191 581.71 
263 5.4296 5.4296 0 0.000115698 0.000115698 -1.52283e-07 1.22668 629.702 635.881 
343 4.4714 4.4714 0 8.764e-05 8.764e-05 -2.27342e-08 0.896827 522.829 526.878 
423 2.5134 2.5134 0 4.04503e-05 4.04503e-05 -8.67549e-08 0.354146 291.068 292.957 
503 0.4432 0.4432 0 4.62411e-06 4.62411e-06 -3.87763e-08 0.0418241 42.822 43.424 
583 0.0646 0.0646 0 3.07862e-08 3.07862e-08 -2.27682e-08 0.00749659 3.62269 3.97219 
663 0.0172 0.0172 0 -4.1226e-08 -4.1226e-08 5.43766e-10 0.00158107 1.20651 1.24115 
743 0.0002 0.0002 0 -3.88463e-10 -3.88463e-10 0 4.12517e-06 -6.89674e-19 -6.89674e-19 
823 0.016 0.016 0 -4.72323e-08 -4.72323e-08 6.57106e-09 0.00137318 1.18734 1.20487 
903 0.0552 0.0552 0 -2.3484e-09 -2.3484e-09 -4.49965e-08 0.00626375 3.36531 3.5515 
983 0.305 0.305 0 2.54489e-06 2.54489e-06 -6.2662e-08 0.0298877 25.1475 25.9225 
24 1.0288 1.0288 0 1.34816e-05 1.34816e-05 2.35883e-08 0.105119 112.569 113.768 
104 3.3094 3.3094 0 5.75645e-05 5.75645e-05 1.00484e-07 0.542576 384.582 387.116 
184 5.0032 5.0032 0 0.000102517 0.000102517 -1.71667e-07 1.07077 582.14 587.01 
264 5.3742 5.3742 0 0.000114953 0.000114953 1.75552e-07 1.21876 623.117 628.523 
344 4.4994 4.4994 0 8.78884e-05 8.78884e-05 2.55557e-07 0.89468 527.508 532.371 
424 2.4328 2.4328 0 3.89056e-05 3.89056e-05 1.23511e-07 0.34224 281.116 283.175 
504 0.4406 0.4406 0 4.45992e-06 4.45992e-06 4.35217e-09 0.0418237 41.0966 41.6014 
584 0.0626 0.0626 0 -2.55065e-09 -2.55065e-09 -6.91726e-10 0.00761757 3.81655 4.01949 
664 0.0192 0.0192 0 -4.41619e-08 -4.41619e-08 -6.69774e-09 0.00172792 1.4596 1.51529 
744 0 0 0 0 0 0 0 0 0 
824 0.0124 0.0124 0 -2.89513e-08 -2.89513e-08 -3.12136e-09 0.000979502 0.95162 1.00612 
904 0.0514 0.0514 0 -1.38046e-08 -1.38046e-08 9.14457e-09 0.00585026 3.02024 3.20337 
984 0.3062 0.3062 0 2.70346e-06 2.70346e-06 -5.25741e-08 0.0297008 26.9608 27.7778 
25 1.0618 1.0618 0 1.42203e-05 1.42203e-05 -4.86548e-09 0.110083 117.796 119.043 
105 3.3014 3.3014 0 5.72981e-05 5.72981e-05 7.80401e-08 0.542107 382.479 385.275 
185 4.9302 4.9302 0 0.00010083 0.00010083 7.41497e-08 1.05264 574.734 578.964 
265 5.4774 5.4774 0 0.000117347 0.000117347 3.14674e-07 1.24395 635.673 642.253 
345 4.3792 4.3792 0 8.53807e-05 8.53807e-05 2.06142e-07 0.873407 507.752 511.675 
425 2.4486 2.4486 0 3.9243e-05 3.9243e-05 7.17829e-08 0.340787 283.51 285.456 
505 0.4312 0.4312 0 4.38174e-06 4.38174e-06 1.65006e-08 0.0413526 39.9825 40.6815 
585 0.0652 0.0652 0 6.24857e-09 6.24857e-09 -9.7607e-09 0.00780275 3.94257 4.2058 
665 0.0142 0.0142 0 -4.65577e-08 -4.65577e-08 5.6911e-09 0.00137979 0.981549 1.04767 
745 0.001 0.001 0 -4.08281e-09 -4.08281e-09 1.71519e-09 4.34837e-05 0.0105992 0.00266768 
825 0.0132 0.0132 0 -3.48796e-08 -3.48796e-08 -6.95932e-09 0.000958999 0.573642 0.553571 
905 0.0536 0.0536 0 -2.50834e-08 -2.50834e-08 -2.40682e-09 0.00615929 2.94946 3.09093 
985 0.3148 0.3148 0 2.76402e-06 2.76402e-06 -2.01067e-08 0.030304 27.205 27.8787 
26 1.0612 1.0612 0 1.40873e-05 1.40873e-05 -1.00776e-07 0.110205 114.668 115.861 
106 3.328 3.328 0 5.79664e-05 5.79664e-05 7.08011e-08 0.550244 385.5 388.088 
186 4.9574 4.9574 0 0.000101739 0.000101739 1.24653e-07 1.06251 576.861 582.111 
266 5.3996 5.3996 0 0.000115267 0.000115267 -1.80137e-07 1.22173 628.523 635.979 
346 4.43 4.43 0 8.63179e-05 8.63179e-05 3.60435e-09 0.878743 518.255 521.96 
426 2.4134 2.4134 0 3.82705e-05 3.82705e-05 6.83596e-08 0.333567 276.886 278.874 
506 0.4034 0.4034 0 3.97983e-06 3.97983e-06 5.55334e-08 0.0382797 37.0621 37.7092 
586 0.059 0.059 0 2.4767e-09 2.4767e-09 1.20789e-08 0.00711594 3.44671 3.66256 
666 0.0132 0.0132 0 -3.22799e-08 -3.22799e-08 2.91091e-09 0.0010862 0.795293 0.81546 
746 0.0002 0.0002 0 -1.51043e-09 -1.51043e-09 0 1.60301e-05 0 0 
826 0.013 0.013 0 -2.69365e-08 -2.69365e-08 -5.70371e-09 0.0011283 1.13021 1.12536 
906 0.0532 0.0532 0 -1.15322e-08 -1.15322e-08 7.65151e-10 0.00624838 3.06982 3.31333 
986 0.3156 0.3156 0 2.77861e-06 2.77861e-06 -4.27166e-09 0.0307718 27.4754 28.2814 
27 1.1146 1.1146 0 1.48545e-05 1.48545e-05 1.64748e-08 0.115934 121.819 122.91 
107 3.3412 3.3412 0 5.83924e-05 5.83924e-05 -8.27566e-08 0.55563 387.937 390.367 
187 5.0398 5.0398 0 0.00010365 0.00010365 1.71056e-07 1.0832 586.141 591.166 
267 5.3348 5.3348 0 0.000113838 0.000113838 -2.40208e-07 1.20654 617.719 624.019 
347 4.4412 4.4412 0 8.6107e-05 8.6107e-05 2.36407e-07 0.8758 514.677 517.993 
427 2.3982 2.3982 0 3.8342e-05 3.8342e-05 -1.27753e-07 0.330907 278.938 280.394 
507 0.408 0.408 0 4.03803e-06 4.03803e-06 -5.52606e-08 0.0391328 37.7853 38.6813 
587 0.059 0.059 0 1.83504e-08 1.83504e-08 1.01311e-08 0.00692489 3.78061 3.97537 
667 0.0198 0.0198 0 -4.62872e-08 -4.62872e-08 2.98865e-09 0.00157839 1.05316 1.15994 
747 0.0006 0.0006 0 -4.4494e-09 -4.4494e-09 3.95825e-10 4.73202e-05 0.0202768 0.0236407 
827 0.0128 0.0128 0 -3.9586e-08 -3.9586e-08 1.44379e-09 0.00111953 0.79563 0.800667 
907 0.0554 0.0554 0 -2.09951e-08 -2.09951e-08 -5.33879e-09 0.00623577 2.87882 2.90946 
987 0.322 0.322 0 2.95458e-06 2.95458e-06 4.27534e-08 0.0313586 28.6822 29.2004 
28 1.1616 1.1616 0 1.58001e-05 1.58001e-05 4.28428e-08 0.122473 129.171 130.373 
108 3.3756 3.3756 0 5.90395e-05 5.90395e-05 3.21115e-08 0.561855 391.345 394.44 
188 4.9626 4.9626 0 0.000102187 0.000102187 8.92423e-08 1.06834 578.818 582.961 
268 5.3856 5.3856 0 0.000114912 0.000114912 6.20527e-08 1.21797 623.914 630.547 
348 4.4006 4.4006 0 8.54556e-05 8.54556e-05 1.03809e-07 0.868744 511.977 516.051 
428 2.3724 2.3724 0 3.75567e-05 3.75567e-05 -7.9499e-08 0.323791 273.711 276.245 
508 0.376 0.376 0 3.65501e-06 3.65501e-06 3.00409e-08 0.0362332 34.7935 35.3889 
588 0.0618 0.0618 0 -1.19877e-08 -1.19877e-08 2.70193e-09 0.00749792 3.72721 3.90354 
668 0.0176 0.0176 0 -4.07837e-08 -4.07837e-08 -5.8525e-09 0.00143686 0.989776 1.05525 
748 0.0002 0.0002 0 -2.6655e-09 -2.6655e-09 -1.66236e-10 2.81347e-05 0.0122053 0.0127903 
828 0.0172 0.0172 0 -5.20277e-08 -5.20277e-08 8.08068e-09 0.00163341 1.28921 1.35856 