ITEM: TIMESTEP
25000
ITEM: NUMBER OF SURFS
1272
ITEM: BOX BOUNDS oo rr pp
0 0.3
0 0.3
-0.5 0.5
ITEM: SURFS id f_4[1] f_4[2] f_4[3] f_4[4] f_4[5] f_4[6] f_4[7] f_4[8] f_4[9] 
1 0.0406 0.0406 0 0.000980581 0.000980581 -1.34459e-05 161.471 18798.4 22115.6 
41 9.355 9.355 0 0.382999 0.382999 0.000713074 3829.99 213954 306530 
81 10.5748 10.5748 0 0.428509 0.428509 0.000674947 4285.09 194296 288213 
121 10.8886 10.8886 0 0.438754 0.438754 0.000585395 4387.54 184118 272613 
161 10.9158 10.9158 0 0.440419 0.440419 0.000278079 4404.19 185551 267662 
201 10.8064 10.8064 0 0.43599 0.43599 -0.00137871 4359.9 187921 272344 
241 10.554 10.554 0 0.427713 0.427713 -0.00109769 4277.13 193742 277435 
281 9.7626 9.7626 0 0.396977 0.396977 0.000435242 3969.77 202926 299534 
321 0.4958 0.4958 0 0.0208115 0.0208115 -0.000199193 2066.66 189728 238777 
361 0.4234 0.4234 0 0.00303984 0.00303984 -0.000267602 170.284 10405.5 13217.6 
401 0.575 0.575 0 0.00229521 0.00229521 -0.000471811 230.785 9418.26 12869.3 
441 0.732 0.732 0 0.00178488 0.00178488 -0.00011231 289.509 10670.4 15135.1 
481 0.7946 0.7946 0 0.00174748 0.00174748 -0.000277849 317.34 10310.9 13626.2 
521 0.8512 0.8512 0 0.00232015 0.00232015 -0.000113774 337.463 12093.8 14871.2 
561 0.9114 0.9114 0 0.00179555 0.00179555 -0.000115807 361.335 11140.6 14883.7 
601 0.8658 0.8658 0 0.00266644 0.00266644 0.00015524 343.46 11338.7 15300.7 
641 0.0234 0.0234 0 -0.000196169 -0.000196169 2.35733e-05 84.609 2918.6 4356.86 
681 0.2262 0.2262 0 -0.00879858 -0.00879858 -5.42137e-05 87.9858 1705.47 2760.48 
721 0.2252 0.2252 0 -0.00870273 -0.00870273 0.000171467 87.0273 1707.53 2184.65 
761 0.227 0.227 0 -0.00903435 -0.00903435 0.000114198 90.3435 2708.4 3836.93 
801 0.2554 0.2554 0 -0.0104034 -0.0104034 -0.000171005 104.034 5033.6 6417.67 
841 0.2402 0.2402 0 -0.00941939 -0.00941939 0.000231624 94.1939 3451.94 4925.03 
881 0.2234 0.2234 0 -0.00894633 -0.00894633 -9.20548e-05 89.4633 2447.25 3728.39 
921 0.2322 0.2322 0 -0.00919365 -0.00919365 -0.000174777 91.9365 1120.05 1779.56 
961 0.0124 0.0124 0 -0.00025258 -0.00025258 -2.99659e-05 48.4802 2152.62 3108.22 
1001 0.8644 0.8644 0 0.00281075 0.00281075 0.000322344 339.69 12141.7 16709 
1041 0.8898 0.8898 0 0.00244417 0.00244417 -0.000377729 354.989 10860.5 15325.2 
1081 0.8582 0.8582 0 0.00208958 0.00208958 0.000122022 344.53 11583.1 15638.5 
1121 0.7942 0.7942 0 0.00200505 0.00200505 -0.000347008 311.913 11869.8 15720.2 
1161 0.6956 0.6956 0 0.00178423 0.00178423 -0.000154683 280.248 10440.9 13340.4 
1201 0.589 0.589 0 0.00181204 0.00181204 0.000153599 236.856 9267.67 11931.8 
1241 0.4606 0.4606 0 0.00296058 0.00296058 6.27976e-05 183.322 10625.3 14025.4 
2 0.0474 0.0474 0 0.00119642 0.00119642 -0.00011203 194.222 21713.7 27822 
42 9.394 9.394 0 0.38493 0.38493 -0.0012557 3849.3 210170 304658 
82 10.4146 10.4146 0 0.422517 0.422517 -0.00120185 4225.17 187965 275718 
122 10.741 10.741 0 0.434683 0.434683 -0.000719268 4346.83 184020 271147 
162 11.0188 11.0188 0 0.445216 0.445216 -0.000658356 4452.16 184249 265769 
202 10.954 10.954 0 0.440953 0.440953 0.00106013 4409.53 185412 270204 
242 10.6086 10.6086 0 0.429267 0.429267 -0.000103826 4292.67 197844 287041 
282 9.776 9.776 0 0.39824 0.39824 -0.000140164 3982.4 206849 301826 
322 0.4404 0.4404 0 0.0183912 0.0183912 -0.000136366 1830.65 180506 221182 
362 0.421 0.421 0 0.00283148 0.00283148 0.000125112 168.494 8572.09 11245.9 
402 0.5992 0.5992 0 0.00198239 0.00198239 0.000393426 236.02 8197.68 11524.5 
442 0.7118 0.7118 0 0.00206046 0.00206046 -2.42829e-05 283.114 9779.45 12600.3 
482 0.8004 0.8004 0 0.00184578 0.00184578 -8.40585e-05 316.18 10240.8 15716.6 
522 0.873 0.873 0 0.00183379 0.00183379 -0.000148226 342.845 10722.5 15111.5 
562 0.8948 0.8948 0 0.00152612 0.00152612 8.88654e-05 355.86 12557.9 16554.7 
602 0.8426 0.8426 0 0.0019155 0.0019155 -0.000116981 337.006 11471.8 16691.4 
642 0.0214 0.0214 0 -0.000206243 -0.000206243 -1.47969e-05 76.5258 5731.29 7676.84 
682 0.2144 0.2144 0 -0.00828189 -0.00828189 4.64166e-05 82.8189 650.797 376.65 
722 0.226 0.226 0 -0.00892924 -0.00892924 -0.000103233 89.2924 2840.24 3677.46 
762 0.2278 0.2278 0 -0.00930123 -0.00930123 0.000112008 93.0123 3501.39 4384.98 
802 0.2484 0.2484 0 -0.00999514 -0.00999514 -0.000166056 99.9514 2413.36 4822.4 
842 0.2318 0.2318 0 -0.00938295 -0.00938295 8.81731e-05 93.8295 1995.6 3150.15 
882 0.2268 0.2268 0 -0.00883575 -0.00883575 -5.84538e-05 88.3575 1698.36 2274.25 
922 0.2282 0.2282 0 -0.00889109 -0.00889109 -0.00010287 88.9109 1816.31 2388.1 
962 0.0178 0.0178 0 -0.000202707 -0.000202707 7.5969e-06 63.4001 5936.38 9565.94 
1002 0.8534 0.8534 0 0.00252878 0.00252878 0.000252878 339.268 10360.4 14428.5 
1042 0.8958 0.8958 0 0.0020091 0.0020091 0.000322949 356.39 10373.3 14543.3 
1082 0.844 0.844 0 0.00169202 0.00169202 5.03962e-05 336.449 10198.4 12854.7 
1122 0.807 0.807 0 0.00154676 0.00154676 -6.34473e-07 323.463 9976.19 14643 
1162 0.6992 0.6992 0 0.00178855 0.00178855 2.14817e-05 278.485 7375.17 11371.8 
1202 0.57 0.57 0 0.0020211 0.0020211 3.99082e-05 228.661 9668.45 12926.6 
1242 0.4188 0.4188 0 0.00315804 0.00315804 4.80049e-05 168.76 9157.44 11092.8 
3 0.0626 0.0626 0 0.00174609 0.00174609 8.07628e-05 256.161 24448.2 28188.2 
43 9.393 9.393 0 0.386277 0.386277 7.75167e-05 3862.77 204461 298039 
83 10.4748 10.4748 0 0.424287 0.424287 0.000524342 4242.87 192754 280110 
123 10.8994 10.8994 0 0.440423 0.440423 -0.00073457 4404.23 191490 282038 
163 10.975 10.975 0 0.440704 0.440704 0.000337053 4407.04 181517 270408 
203 10.8478 10.8478 0 0.435831 0.435831 0.000451987 4358.31 185083 268134 
243 10.3702 10.3702 0 0.421505 0.421505 0.000131089 4215.05 188259 275720 
283 9.7892 9.7892 0 0.399215 0.399215 0.000740821 3992.15 203807 301829 
323 0.3734 0.3734 0 0.0152271 0.0152271 4.58689e-05 1529.14 122371 153360 
363 0.4308 0.4308 0 0.0027785 0.0027785 0.000111635 174.957 11251.9 14525.9 
403 0.5908 0.5908 0 0.00225262 0.00225262 -0.000149741 233.735 9147.57 12631.8 
443 0.6922 0.6922 0 0.0015881 0.0015881 -2.03614e-05 276.713 9739.01 13651.2 
483 0.8122 0.8122 0 0.00171757 0.00171757 -0.000264818 321.826 10370.1 13647.7 
523 0.8548 0.8548 0 0.00175923 0.00175923 -7.37144e-05 338.872 10081.6 14283.3 
563 0.906 0.906 0 0.00238765 0.00238765 -0.000131848 361.255 13298.8 17453.8 
603 0.9124 0.9124 0 0.0027668 0.0027668 -7.2731e-05 359.148 10816 13265.2 
643 0.0196 0.0196 0 -0.000362237 -0.000362237 -3.06371e-05 73.9954 714.782 1102.73 
683 0.2308 0.2308 0 -0.00875523 -0.00875523 -0.00015237 87.5523 1070.16 1464.66 
723 0.2272 0.2272 0 -0.00877882 -0.00877882 -3.5833e-05 87.7882 3072.32 4502.06 
763 0.2432 0.2432 0 -0.00979699 -0.00979699 -3.24496e-05 97.9699 3245.52 4519.31 
803 0.2578 0.2578 0 -0.0102546 -0.0102546 -1.99885e-05 102.546 3969.84 6288.09 
843 0.237 0.237 0 -0.00946126 -0.00946126 -0.000172878 94.6126 2277.57 4341.21 
883 0.2292 0.2292 0 -0.00903658 -0.00903658 -0.000181509 90.3658 1651.93 2730.21 
923 0.2246 0.2246 0 -0.00883158 -0.00883158 6.14759e-05 88.3158 710.365 1098.87 
963 0.021 0.021 0 -0.00026801 -0.00026801 -2.62902e-05 81.3571 5013.6 5470.24 
1003 0.89 0.89 0 0.00251737 0.00251737 -0.000193552 354.092 11462.1 15851.1 
1043 0.893 0.893 0 0.00180655 0.00180655 -0.000278821 352.773 11516.7 14700.6 
1083 0.897 0.897 0 0.00210527 0.00210527 -0.000463358 358.133 10118.1 14985.2 
1123 0.7816 0.7816 0 0.00194421 0.00194421 0.000121704 315.513 11431.6 14148.8 
1163 0.7112 0.7112 0 0.00201936 0.00201936 0.000475778 284.49 10094.1 14096.9 
1203 0.5808 0.5808 0 0.00170694 0.00170694 7.25841e-05 230.414 8957.74 12056.2 
1243 0.4242 0.4242 0 0.00268093 0.00268093 9.18319e-05 169.916 10486.6 13629.1 
4 0.08 0.08 0 0.0021831 0.0021831 0.000133495 319.04 23442.6 29373.5 
44 9.484 9.484 0 0.388712 0.388712 0.000178592 3887.12 205613 295875 
84 10.5304 10.5304 0 0.42654 0.42654 -0.000487842 4265.4 194170 283517 
124 10.745 10.745 0 0.434892 0.434892 0.0017197 4348.92 180901 262739 
164 10.9794 10.9794 0 0.440779 0.440779 -0.000415968 4407.79 181426 268659 
204 11.0476 11.0476 0 0.44629 0.44629 0.000821735 4462.9 181993 267734 
244 10.6922 10.6922 0 0.433239 0.433239 2.6435e-05 4332.39 199757 288070 
284 9.7202 9.7202 0 0.395894 0.395894 -0.000812845 3958.94 204171 294463 
324 0.2996 0.2996 0 0.0116126 0.0116126 -4.66138e-05 1203.88 107184 140642 
364 0.421 0.421 0 0.00298455 0.00298455 0.000129018 171.15 7640.33 10313.9 
404 0.573 0.573 0 0.00217903 0.00217903 4.05252e-05 227.878 9122.93 12143.1 
444 0.724 0.724 0 0.00216647 0.00216647 0.000170145 286.344 8008.82 12165.8 
484 0.794 0.794 0 0.00205958 0.00205958 5.63374e-06 317.603 11498.7 15836.7 
524 0.8734 0.8734 0 0.00127368 0.00127368 6.02624e-05 345.855 9834.65 12991 
564 0.8838 0.8838 0 0.00229482 0.00229482 0.000128267 353.559 9736.8 12518.6 
604 0.8388 0.8388 0 0.00266255 0.00266255 -0.000114084 337.332 12953 16164.3 
644 0.019 0.019 0 -0.000355686 -0.000355686 3.64979e-05 67.7215 2882.71 2638.28 
684 0.2292 0.2292 0 -0.00883122 -0.00883122 -5.1414e-05 88.3122 769.145 1543.33 
724 0.2272 0.2272 0 -0.00862964 -0.00862964 -5.14918e-05 86.2964 847.489 1667.24 
764 0.239 0.239 0 -0.00949779 -0.00949779 0.000122488 94.9779 3703.95 5462.68 
804 0.2582 0.2582 0 -0.0103738 -0.0103738 7.84747e-05 103.738 4034.73 5602.89 
844 0.2288 0.2288 0 -0.00923939 -0.00923939 2.32213e-05 92.3939 2908.79 4594 
884 0.2304 0.2304 0 -0.00875072 -0.00875072 0.000130026 87.5072 2119.18 2898.27 
924 0.228 0.228 0 -0.00875149 -0.00875149 0.000262923 87.5149 1722.14 2235.19 
964 0.0248 0.0248 0 -0.000221482 -0.000221482 -6.91339e-05 93.4443 3896.63 4843.08 
1004 0.867 0.867 0 0.00284164 0.00284164 1.82588e-06 344.594 12690.6 17137.3 
1044 0.8968 0.8968 0 0.00181235 0.00181235 4.33876e-05 355.686 11416.1 15112.4 
1084 0.8756 0.8756 0 0.00183449 0.00183449 -3.16545e-05 341.889 11050.1 15400.5 
1124 0.8016 0.8016 0 0.00191151 0.00191151 -0.000443636 320.184 10233.6 15439.6 
1164 0.6768 0.6768 0 0.00190427 0.00190427 -6.79108e-05 270.602 7628.95 12615.4 
1204 0.5632 0.5632 0 0.00243558 0.00243558 -0.000133819 225.932 7644.17 10579.2 
1244 0.4512 0.4512 0 0.00329026 0.00329026 9.03066e-05 183.989 10220.2 13712.1 
5 0.111 0.111 0 0.00344132 0.00344132 0.000116321 439.412 35257.5 41076 
45 9.563 9.563 0 0.3911 0.3911 -0.000538278 3911 211333 302335 
85 10.5168 10.5168 0 0.42529 0.42529 -0.000131969 4252.9 189711 272277 
125 10.9132 10.9132 0 0.441007 0.441007 -0.00064125 4410.07 186779 275176 
165 10.9916 10.9916 0 0.442621 0.442621 0.00112067 4426.21 183933 272569 
205 10.8466 10.8466 0 0.438024 0.438024 0.000384926 4380.24 190165 274847 
245 10.5032 10.5032 0 0.425106 0.425106 0.000151244 4251.06 192641 280000 
285 9.7796 9.7796 0 0.397927 0.397927 0.00137361 3979.27 213420 306504 
325 0.239 0.239 0 0.00901182 0.00901182 -0.000144271 954.674 66202.7 88518.7 
365 0.426 0.426 0 0.00312123 0.00312123 0.000138607 172.274 10335.8 13308.9 
405 0.5972 0.5972 0 0.00198276 0.00198276 0.00019771 239.334 9504.13 13223.2 
445 0.6864 0.6864 0 0.00166528 0.00166528 -0.000268255 273.777 9531.19 13676.3 
485 0.8064 0.8064 0 0.00216416 0.00216416 -0.000180568 317.624 11190.1 16336.4 
525 0.897 0.897 0 0.00205655 0.00205655 -0.000216236 350.409 11827.1 15337.8 
565 0.9098 0.9098 0 0.00131041 0.00131041 -0.000593008 358.455 10879.6 15577.8 
605 0.8442 0.8442 0 0.00242766 0.00242766 0.000342894 337.724 12086.9 16376.6 
645 0.0096 0.0096 0 -0.000173316 -0.000173316 -4.75153e-05 32.6844 2909.57 2555.67 
685 0.2276 0.2276 0 -0.00886306 -0.00886306 -6.45473e-05 88.6306 1052.28 1652.04 
725 0.2362 0.2362 0 -0.00932784 -0.00932784 0.000285622 93.2784 2577.52 3872.73 
765 0.2256 0.2256 0 -0.00915789 -0.00915789 1.59403e-05 91.5789 3724.47 4756.66 
805 0.2358 0.2358 0 -0.0094088 -0.0094088 -0.000158936 94.088 4066.15 5038.07 
845 0.2218 0.2218 0 -0.00888261 -0.00888261 5.12706e-05 88.8261 2892.85 3660.88 
885 0.223 0.223 0 -0.00884307 -0.00884307 -2.80734e-06 88.4307 2123.99 2303.41 
925 0.2212 0.2212 0 -0.00861585 -0.00861585 -0.000165679 86.1585 1780.19 2249.8 
965 0.0222 0.0222 0 -8.22651e-05 -8.22651e-05 -6.24492e-05 83.9149 2755.61 3435.8 
1005 0.868 0.868 0 0.00233208 0.00233208 0.000126966 345.577 10818.9 14645.3 
1045 0.8902 0.8902 0 0.00192184 0.00192184 -6.14968e-05 355.387 9410.62 14237.8 
1085 0.8766 0.8766 0 0.00166192 0.00166192 -0.0002332 346.65 11699.9 16260.5 
1125 0.781 0.781 0 0.00151693 0.00151693 -4.88058e-06 315.691 10459.1 13084.6 
1165 0.7122 0.7122 0 0.00233744 0.00233744 -0.000186398 282.58 9653.94 11981 
1205 0.5564 0.5564 0 0.00213811 0.00213811 0.000444833 223.504 9497.72 12660.1 
1245 0.4362 0.4362 0 0.00332337 0.00332337 0.000186412 176.505 10364.7 12475.6 
6 0.1382 0.1382 0 0.0045414 0.0045414 -3.38264e-05 532.331 44350.2 58205.8 
46 9.6066 9.6066 0 0.39275 0.39275 -0.000604888 3927.5 211219 301111 
86 10.6022 10.6022 0 0.429758 0.429758 0.000433286 4297.58 195902 286076 
126 10.844 10.844 0 0.438392 0.438392 -0.000419469 4383.92 194747 279316 
166 10.932 10.932 0 0.439283 0.439283 3.07063e-06 4392.83 180108 264368 
206 10.8232 10.8232 0 0.437402 0.437402 0.00143785 4374.02 172487 252825 
246 10.7 10.7 0 0.432406 0.432406 -0.00102322 4324.06 198281 288206 
286 9.6086 9.6086 0 0.39353 0.39353 -0.000849449 3935.3 208892 295191 
326 0.1912 0.1912 0 0.00664789 0.00664789 6.03683e-07 753.941 64172.3 85203.7 
366 0.4428 0.4428 0 0.00266463 0.00266463 -0.000127986 179.909 11095.3 12741.1 
406 0.591 0.591 0 0.00229722 0.00229722 0.000187531 233.221 9246.91 12289.6 
446 0.7316 0.7316 0 0.00151553 0.00151553 0.000161712 290.699 7684.2 10364.4 
486 0.7972 0.7972 0 0.00145529 0.00145529 0.000586456 318.297 10006.2 14314.3 
526 0.8828 0.8828 0 0.00210471 0.00210471 0.00018774 351.882 10792.2 14370.9 
566 0.8896 0.8896 0 0.00212273 0.00212273 -7.68359e-05 353.467 10586.1 14606.4 
606 0.8256 0.8256 0 0.00227448 0.00227448 0.000199935 326.192 13052.3 16868.4 
646 0.0104 0.0104 0 -0.000241114 -0.000241114 -7.13934e-05 38.1225 226.134 644.41 
686 0.2284 0.2284 0 -0.00885953 -0.00885953 2.96679e-05 88.5953 668.161 1688.64 
726 0.226 0.226 0 -0.00896001 -0.00896001 0.000118525 89.6001 2083.3 3150.89 
766 0.2424 0.2424 0 -0.00975987 -0.00975987 -0.000206451 97.5987 3142.2 4565.4 
806 0.2688 0.2688 0 -0.0107181 -0.0107181 3.91187e-05 107.181 4377.92 6243.4 
846 0.241 0.241 0 -0.00956964 -0.00956964 -0.00017111 95.6964 3893.51 4472.86 
886 0.2228 0.2228 0 -0.00892535 -0.00892535 0.000137939 89.2535 2804.06 3941.47 
926 0.2154 0.2154 0 -0.00818398 -0.00818398 -6.25533e-05 81.8398 2149.32 2504.93 
966 0.0308 0.0308 0 -6.8755e-05 -6.8755e-05 2.69876e-05 115.536 4719.3 6749.42 
1006 0.8696 0.8696 0 0.00207287 0.00207287 -8.89075e-05 346.653 11019.1 14707.4 
1046 0.8828 0.8828 0 0.00149474 0.00149474 2.17771e-05 352.423 13131 17443.9 
1086 0.863 0.863 0 0.00218452 0.00218452 -6.07714e-05 339.671 10614.7 14876.5 
1126 0.7866 0.7866 0 0.00158905 0.00158905 0.000158642 310.557 10468.8 14837.1 
1166 0.692 0.692 0 0.00210253 0.00210253 -0.00045315 278.439 9042.69 12395.3 
1206 0.585 0.585 0 0.00212212 0.00212212 0.000173286 236.62 7594.18 10574.2 
1246 0.4276 0.4276 0 0.0031931 0.0031931 -0.000347977 169.958 8886.65 11049.3 
7 0.2038 0.2038 0 0.00705346 0.00705346 -6.81955e-05 790.671 57188.3 71524.4 
47 9.6738 9.6738 0 0.394685 0.394685 -0.000481811 3946.85 213146 304439 
87 10.432 10.432 0 0.423065 0.423065 0.00116396 4230.65 185910 272670 
127 10.7888 10.7888 0 0.436253 0.436253 -0.000601963 4362.53 190783 277333 
167 10.8612 10.8612 0 0.438494 0.438494 0.00135934 4384.94 180427 260638 
207 10.8102 10.8102 0 0.434856 0.434856 0.000300797 4348.56 186061 273297 
247 10.4932 10.4932 0 0.42454 0.42454 4.95904e-05 4245.4 184635 270569 
287 9.5208 9.5208 0 0.389267 0.389267 0.00175293 3892.67 203665 292841 
327 0.1522 0.1522 0 0.00488483 0.00488483 0.000163181 590.864 42927.4 56800.9 
367 0.447 0.447 0 0.00280002 0.00280002 -0.000424169 178.634 10890.8 13504.4 
407 0.6012 0.6012 0 0.00192575 0.00192575 0.000417014 242.415 9036.62 12008.1 
447 0.7298 0.7298 0 0.00190182 0.00190182 -0.00015127 288.287 10519.2 14165 
487 0.7992 0.7992 0 0.00244159 0.00244159 -0.000382806 319.708 8404.14 11608.3 
527 0.8668 0.8668 0 0.00235306 0.00235306 0.000384025 345.42 9255.9 12923.2 
567 0.8968 0.8968 0 0.00179125 0.00179125 0.000105323 359.964 10979.2 14288.9 
607 0.8584 0.8584 0 0.00310939 0.00310939 0.000256122 338.541 11113.4 16082.4 
647 0.0082 0.0082 0 -0.000210124 -0.000210124 2.20405e-05 27.3215 109.705 -296.49 
687 0.231 0.231 0 -0.00896142 -0.00896142 0.000238969 89.6142 1892.03 2119.8 
727 0.2298 0.2298 0 -0.0088683 -0.0088683 -4.93316e-07 88.683 2190.49 2792.55 
767 0.2366 0.2366 0 -0.00956426 -0.00956426 -0.000139214 95.6426 2734.95 3783.99 
807 0.2458 0.2458 0 -0.0100836 -0.0100836 8.66147e-05 100.836 4551.65 6998.66 
847 0.2456 0.2456 0 -0.00959974 -0.00959974 -9.41288e-05 95.9974 3137.82 4311.09 
887 0.223 0.223 0 -0.00877468 -0.00877468 -4.81938e-05 87.7468 1955.66 1733.98 
927 0.2184 0.2184 0 -0.00846312 -0.00846312 -0.0001581 84.6312 1524.34 2597.31 
967 0.0392 0.0392 0 5.06845e-05 5.06845e-05 -8.30593e-05 163.907 11369.2 10087.7 
1007 0.8602 0.8602 0 0.0020795 0.0020795 0.000383585 337.897 13218.8 17576.8 
1047 0.8854 0.8854 0 0.00236856 0.00236856 -0.000106121 349.594 10620.1 14047.8 
1087 0.8434 0.8434 0 0.00180582 0.00180582 0.000114514 333.957 9466.16 12007.4 
1127 0.7794 0.7794 0 0.00214865 0.00214865 -0.000237385 309.742 8918.02 12492.8 
1167 0.6744 0.6744 0 0.00200514 0.00200514 -0.000327812 269.998 7883.39 12297.7 
1207 0.5428 0.5428 0 0.00169569 0.00169569 -0.000184678 215.888 8143.71 10807.2 
1247 0.425 0.425 0 0.00307516 0.00307516 -0.000211224 170.637 10450.7 13275.5 
8 0.246 0.246 0 0.00914398 0.00914398 0.000187968 976.3 76142.2 93657.6 
48 9.5796 9.5796 0 0.391518 0.391518 0.00155618 3915.18 211797 305015 
88 10.4864 10.4864 0 0.425844 0.425844 -0.0010022 4258.44 192654 281395 
128 10.9048 10.9048 0 0.440791 0.440791 -0.000464711 4407.91 184509 270085 
168 10.96 10.96 0 0.442166 0.442166 0.000148299 4421.66 179694 268775 
208 10.9026 10.9026 0 0.439736 0.439736 0.000365898 4397.36 192076 279546 
248 10.4498 10.4498 0 0.423847 0.423847 -0.00122204 4238.47 192049 279631 
288 9.5198 9.5198 0 0.389568 0.389568 -0.00176957 3895.68 206828 295553 
328 0.1062 0.1062 0 0.00330338 0.00330338 -4.12299e-06 420.217 37106.8 48146.6 
368 0.471 0.471 0 0.00258508 0.00258508 0.000152153 186.122 9410.59 12126.2 
408 0.5888 0.5888 0 0.00216948 0.00216948 0.000106442 238.414 8394.23 11693.7 
448 0.727 0.727 0 0.00191861 0.00191861 -0.000248499 287.539 10074.8 12217.5 
488 0.8196 0.8196 0 0.00210179 0.00210179 -0.000296546 327.11 9073.98 13576 
528 0.8666 0.8666 0 0.00235167 0.00235167 0.00040847 344.849 12434.7 16357.1 
568 0.8994 0.8994 0 0.00228505 0.00228505 -0.000227477 357.137 10629.2 14261.7 
608 0.8314 0.8314 0 0.00276353 0.00276353 -0.000284479 330.139 12010.8 16807.4 
648 0.006 0.006 0 -0.000153162 -0.000153162 -4.83666e-06 18.4898 -793.722 -43.6814 
688 0.2194 0.2194 0 -0.00867469 -0.00867469 0.000124764 86.7469 942.256 1807.1 
728 0.2248 0.2248 0 -0.0087743 -0.0087743 0.000132688 87.743 1821.67 2631.94 
768 0.2438 0.2438 0 -0.00981678 -0.00981678 -0.000135186 98.1678 3367.1 4454.93 
808 0.25 0.25 0 -0.0102467 -0.0102467 9.42894e-05 102.467 5210.39 5923.02 
848 0.2386 0.2386 0 -0.00952679 -0.00952679 8.38087e-05 95.2679 3376 3812.07 
888 0.2302 0.2302 0 -0.00901073 -0.00901073 -2.27224e-05 90.1073 2179.29 2789.11 
928 0.2312 0.2312 0 -0.00922189 -0.00922189 4.09996e-05 92.2189 1134.31 1124.41 
968 0.0478 0.0478 0 0.000204077 0.000204077 3.03992e-05 198.418 10859.6 16670.6 
1008 0.8888 0.8888 0 0.00234105 0.00234105 0.000220393 355.882 10510.1 14604 
1048 0.878 0.878 0 0.00193541 0.00193541 -0.000116642 352.488 10914.3 14755.9 
1088 0.8416 0.8416 0 0.00167241 0.00167241 -0.000172813 336.25 11444.7 14465 
1128 0.7806 0.7806 0 0.00225405 0.00225405 -0.000292557 309.339 10361.9 14560 
1168 0.6894 0.6894 0 0.00206903 0.00206903 0.000397421 276.961 11247.1 14632.3 
1208 0.566 0.566 0 0.00213896 0.00213896 -8.34069e-05 223.809 8721.09 11520.5 
1248 0.3912 0.3912 0 0.0030864 0.0030864 -0.00026282 155.279 9754.77 13281.2 
9 0.3148 0.3148 0 0.0124221 0.0124221 4.18979e-05 1294.09 96472.7 133555 
49 9.8424 9.8424 0 0.402097 0.402097 0.000708007 4020.97 209820 299702 
89 10.4798 10.4798 0 0.42369 0.42369 0.00204502 4236.9 185824 276109 
129 10.7638 10.7638 0 0.43377 0.43377 -0.000591771 4337.7 183671 267845 
169 10.9602 10.9602 0 0.442352 0.442352 -0.00215404 4423.52 188057 271780 
209 10.8264 10.8264 0 0.436477 0.436477 0.000721577 4364.77 187311 271288 
249 10.5224 10.5224 0 0.426965 0.426965 -8.39336e-05 4269.65 198070 288388 
289 9.527 9.527 0 0.390473 0.390473 -0.00108432 3904.73 216823 306250 
329 0.092 0.092 0 0.00262633 0.00262633 -8.27355e-05 365.237 32307.6 45170.1 
369 0.4632 0.4632 0 0.00251974 0.00251974 -0.000167497 184.353 9231.07 11611.7 
409 0.6122 0.6122 0 0.00166147 0.00166147 0.00011801 243.332 7586.29 11696.4 
449 0.7258 0.7258 0 0.00177018 0.00177018 7.27741e-05 288.917 10723.5 13002 
489 0.8226 0.8226 0 0.00168445 0.00168445 -0.000108143 327.836 11934.3 15854.6 
529 0.8386 0.8386 0 0.00168914 0.00168914 -0.000385838 330.603 10306.2 13502.6 
569 0.8836 0.8836 0 0.00189498 0.00189498 -9.04025e-05 347.115 11261.1 14844.6 
609 0.8326 0.8326 0 0.00240678 0.00240678 0.00036401 331.878 11599.2 16251.5 
649 0.0062 0.0062 0 -0.000196342 -0.000196342 -1.30015e-05 22.3663 1946.61 3189.76 
689 0.2248 0.2248 0 -0.00872039 -0.00872039 -3.89647e-05 87.2039 1114.95 1910.76 
729 0.2144 0.2144 0 -0.00850758 -0.00850758 0.000129968 85.0758 2814.45 3909.62 
769 0.2448 0.2448 0 -0.00967622 -0.00967622 -0.000181182 96.7622 3438.38 4972.36 
809 0.2474 0.2474 0 -0.0099109 -0.0099109 -0.000190936 99.109 4311.55 6182.76 
849 0.234 0.234 0 -0.00908617 -0.00908617 -9.59358e-05 90.8617 2976.37 4617.35 
889 0.2268 0.2268 0 -0.00883605 -0.00883605 0.000134213 88.3605 1760.01 2644.33 
929 0.2268 0.2268 0 -0.00866932 -0.00866932 -9.84086e-06 86.6932 631.574 1240.23 
969 0.053 0.053 0 0.000482209 0.000482209 3.82064e-05 217.304 11415.7 13180.2 
1009 0.8662 0.8662 0 0.0019078 0.0019078 0.000574863 343.85 9956.62 14621.8 
1049 0.8738 0.8738 0 0.00179054 0.00179054 0.000120051 349.009 12300.4 14945 
1089 0.8456 0.8456 0 0.00184099 0.00184099 0.000280368 340.271 10631.5 13982 
1129 0.8014 0.8014 0 0.00197432 0.00197432 0.00037225 318.149 9252.78 14263.9 
1169 0.678 0.678 0 0.00182921 0.00182921 -0.00015294 270.066 11273.4 15460.5 
1209 0.5438 0.5438 0 0.00232352 0.00232352 0.000238535 218.615 8116.51 11346.9 
1249 0.4482 0.4482 0 0.00366887 0.00366887 0.000412458 177.772 9610.84 11442.9 
10 0.3578 0.3578 0 0.0146142 0.0146142 -0.000257072 1489.89 137038 173627 
50 9.6856 9.6856 0 0.395171 0.395171 0.0026141 3951.71 207525 292733 
90 10.7066 10.7066 0 0.432832 0.432832 -0.00043045 4328.32 196891 288916 
130 10.9612 10.9612 0 0.441249 0.441249 0.00104048 4412.49 184276 267573 
170 11.0526 11.0526 0 0.4452 0.4452 0.000484657 4452 186596 270204 
210 10.769 10.769 0 0.436443 0.436443 -0.00101925 4364.43 186543 272629 
250 10.4354 10.4354 0 0.422215 0.422215 4.74583e-05 4222.15 198584 286714 
290 9.4274 9.4274 0 0.386385 0.386385 -0.000380131 3863.85 217398 314473 
330 0.069 0.069 0 0.00176596 0.00176596 6.64895e-05 280.004 19016.9 27436.1 
370 0.4544 0.4544 0 0.00289059 0.00289059 6.84968e-05 182.895 10486.5 13017.4 
410 0.6006 0.6006 0 0.00199169 0.00199169 -0.000136773 239.841 8455.04 11264.8 
450 0.7118 0.7118 0 0.00166074 0.00166074 -0.000231128 283.083 9702.24 12668.8 
490 0.806 0.806 0 0.00180212 0.00180212 0.000195637 315.606 10962 15159.2 
530 0.8748 0.8748 0 0.00192726 0.00192726 3.3445e-06 345.205 13081.8 16751.6 
570 0.8924 0.8924 0 0.00180829 0.00180829 0.000105353 357.705 13528.7 17051.4 
610 0.8236 0.8236 0 0.00206966 0.00206966 -0.000454932 326.791 11628.4 14000.9 
650 0.006 0.006 0 -0.000222391 -0.000222391 -8.46923e-06 23.433 201.054 -123.717 
690 0.2224 0.2224 0 -0.00860483 -0.00860483 -0.000153974 86.0483 1708.54 2264.52 
730 0.2188 0.2188 0 -0.00861759 -0.00861759 5.90359e-05 86.1759 2269.87 3352.11 
770 0.2416 0.2416 0 -0.00964977 -0.00964977 0.00012071 96.4977 2701.85 4294.26 
810 0.2502 0.2502 0 -0.0103001 -0.0103001 0.000239316 103.001 3745.08 4467.64 
850 0.2294 0.2294 0 -0.00907168 -0.00907168 0.000201089 90.7168 2385.54 2929.25 
890 0.2202 0.2202 0 -0.00841899 -0.00841899 -0.000163024 84.1899 1809.13 2652.08 
930 0.215 0.215 0 -0.00831393 -0.00831393 -6.62697e-05 83.1393 216.489 800.875 
970 0.1362 0.1362 0 0.00135793 0.00135793 -8.6946e-05 211.559 12770.6 14362.7 
1010 0.8996 0.8996 0 0.00236241 0.00236241 -0.000329492 356.64 10417.3 14783 
1050 0.8916 0.8916 0 0.00178146 0.00178146 0.000262984 354.902 11850.6 15248.2 
1090 0.8476 0.8476 0 0.00209902 0.00209902 0.000432397 341.919 10847.8 15240 
1130 0.7458 0.7458 0 0.00191904 0.00191904 -0.000147708 296.273 10653 14686.3 
1170 0.6794 0.6794 0 0.00154467 0.00154467 0.000186631 270.107 7867.61 10065.5 
1210 0.5386 0.5386 0 0.00184233 0.00184233 0.000350754 215.883 8950.45 11836.2 
1250 0.4036 0.4036 0 0.00339911 0.00339911 1.54585e-05 161.847 10750.7 12938.4 
11 0.4318 0.4318 0 0.0177235 0.0177235 -6.01169e-05 1776.81 149195 205536 
51 9.8382 9.8382 0 0.400909 0.400909 0.00140261 4009.09 208547 299527 
91 10.532 10.532 0 0.4259 0.4259 0.000205776 4259 191799 273803 
131 10.7358 10.7358 0 0.433394 0.433394 -0.000494062 4333.94 187061 272786 
171 10.8302 10.8302 0 0.437962 0.437962 0.000980635 4379.62 178437 269342 
211 10.7976 10.7976 0 0.43555 0.43555 0.000366576 4355.5 190945 274970 
251 10.4258 10.4258 0 0.421927 0.421927 -4.585e-05 4219.27 192471 281657 
291 9.3778 9.3778 0 0.384927 0.384927 -0.000377452 3849.27 210626 303556 
331 0.048 0.048 0 0.0011655 0.0011655 3.87304e-05 196.253 21014.1 27587.5 
371 0.4676 0.4676 0 0.00255698 0.00255698 0.000399643 185.957 8954.97 11622.5 
411 0.6226 0.6226 0 0.00227362 0.00227362 0.000116539 248.348 9425.75 11625.3 
451 0.7382 0.7382 0 0.00233473 0.00233473 0.000230954 296.44 11323 15164.2 
491 0.8378 0.8378 0 0.00211359 0.00211359 0.00018342 329.954 10584.4 15645.5 
531 0.8828 0.8828 0 0.00195171 0.00195171 -0.000251239 350.692 11643.9 16125.2 
571 0.9078 0.9078 0 0.00240425 0.00240425 0.00012232 358.853 11393.2 14638.3 
611 0.861 0.861 0 0.00265496 0.00265496 -0.000401334 342.681 12586.4 16704.1 
651 0.0046 0.0046 0 -0.000160763 -0.000160763 -5.90034e-06 16.4971 71.5367 512.255 
691 0.224 0.224 0 -0.00880703 -0.00880703 -0.000139763 88.0703 1315.26 2489.59 
731 0.2388 0.2388 0 -0.00943497 -0.00943497 -2.8178e-05 94.3497 2344.89 3101.59 
771 0.2514 0.2514 0 -0.0101762 -0.0101762 -1.79381e-05 101.762 3930.8 5276.79 
811 0.2552 0.2552 0 -0.0102884 -0.0102884 -7.31129e-05 102.884 3507.84 4511.27 
851 0.2262 0.2262 0 -0.00915582 -0.00915582 1.34425e-05 91.5582 2452.77 3313.6 
891 0.23 0.23 0 -0.00914062 -0.00914062 1.11857e-06 91.4062 1233.37 1746.49 
931 0.2164 0.2164 0 -0.0085258 -0.0085258 0.000145678 85.258 1035.62 1398.91 
971 0.1306 0.1306 0 0.00137284 0.00137284 7.87888e-05 217.118 15325.6 18293.1 
1011 0.896 0.896 0 0.0023724 0.0023724 -0.000242786 352.107 12296.4 17258.2 
1051 0.8698 0.8698 0 0.00199862 0.00199862 -0.000196021 346.355 9816.91 13828.2 
1091 0.818 0.818 0 0.00192861 0.00192861 3.33387e-05 331.734 11580.2 15223.3 
1131 0.796 0.796 0 0.00176661 0.00176661 7.53737e-05 316.082 8576.03 12869.4 
1171 0.6806 0.6806 0 0.00187018 0.00187018 -0.000147152 270.28 10131.8 14140.7 
1211 0.5562 0.5562 0 0.00202315 0.00202315 0.000290574 224.885 8672.97 12463.5 
1251 0.4034 0.4034 0 0.00317979 0.00317979 0.000119341 163.544 11305.9 13618.5 
12 0.4998 0.4998 0 0.0212412 0.0212412 0.000125888 2096.07 222240 277969 
52 9.9194 9.9194 0 0.404755 0.404755 -0.0020756 4047.55 203355 292774 
92 10.5102 10.5102 0 0.42539 0.42539 0.000193118 4253.9 193682 280250 
132 10.992 10.992 0 0.443557 0.443557 -0.00112266 4435.57 175577 258991 
172 11.0236 11.0236 0 0.44487 0.44487 -0.000583168 4448.7 185087 268716 
212 10.712 10.712 0 0.432277 0.432277 -0.000745548 4322.77 181919 265307 
252 10.3896 10.3896 0 0.421957 0.421957 0.000143206 4219.57 194275 278198 
292 9.3076 9.3076 0 0.38311 0.38311 -4.43598e-05 3831.1 213484 303395 
332 0.0404 0.0404 0 0.000845136 0.000845136 4.17683e-05 158.773 15235.3 16502 
372 0.4664 0.4664 0 0.0027612 0.0027612 -2.67827e-05 186.01 9811.69 12222.7 
412 0.611 0.611 0 0.00176433 0.00176433 0.000514132 240.586 9095.25 12635.5 
452 0.713 0.713 0 0.00197639 0.00197639 0.000251209 287.3 9424.09 13177.6 
492 0.8194 0.8194 0 0.00217355 0.00217355 -0.000104261 325.931 9069.15 13316.9 
532 0.8478 0.8478 0 0.00222502 0.00222502 -8.46328e-05 336.837 9326.14 13585.8 
572 0.8862 0.8862 0 0.00203242 0.00203242 3.44795e-05 351.263 12377 15144.5 
612 0.8032 0.8032 0 0.0025285 0.0025285 0.000188878 320.093 12494 16556.4 
652 0.0146 0.0146 0 -0.00050893 -0.00050893 4.42556e-05 20.3572 -898.799 -1095.35 
692 0.2306 0.2306 0 -0.00922668 -0.00922668 -5.0025e-05 92.2668 2219.02 3188.71 
732 0.2366 0.2366 0 -0.00930866 -0.00930866 -8.90227e-05 93.0866 1466.62 2462.54 
772 0.2268 0.2268 0 -0.00906622 -0.00906622 -2.85855e-05 90.6622 3326.57 4398.44 
812 0.2488 0.2488 0 -0.0100752 -0.0100752 0.000132297 100.752 3445.99 5232.66 
852 0.2308 0.2308 0 -0.00919237 -0.00919237 -0.000125126 91.9237 3107.31 3784.78 
892 0.2212 0.2212 0 -0.00855394 -0.00855394 0.000242761 85.5394 1768.15 2585.61 
932 0.2246 0.2246 0 -0.00863322 -0.00863322 0.000141167 86.3322 1072.94 2096.59 
972 0.2818 0.2818 0 0.00275537 0.00275537 3.82277e-05 224.547 14268.6 16790.3 
1012 0.8754 0.8754 0 0.00184791 0.00184791 0.000196045 351.213 10742.4 16003.3 
1052 0.8752 0.8752 0 0.00237775 0.00237775 -5.34758e-05 351 11199.7 15576.7 
1092 0.8462 0.8462 0 0.00216959 0.00216959 -0.000100752 339.6 9342.19 13597.4 
1132 0.7846 0.7846 0 0.00177141 0.00177141 -6.28085e-05 311.755 11532 15672.9 
1172 0.6716 0.6716 0 0.0021079 0.0021079 0.000275132 270.39 9567.07 12991.8 
1212 0.5692 0.5692 0 0.00239311 0.00239311 -0.000376017 226.222 10044.8 12528.3 