ITEM: TIMESTEP
20000
ITEM: NUMBER OF SURFS
1272
ITEM: BOX BOUNDS oo rr pp
0 0.3
0 0.3
-0.5 0.5
ITEM: SURFS id f_4[1] f_4[2] f_4[3] f_4[4] f_4[5] f_4[6] f_4[7] f_4[8] f_4[9] 
1 0.1028 0.1028 0 5.28371e-05 5.28371e-05 1.50892e-06 9.04363 2594.31 4170.81 
41 8.4932 8.4932 0 0.00783378 0.00783378 4.00167e-06 78.3378 11724.3 16703.1 
81 9.568 9.568 0 0.0086088 0.0086088 -8.52296e-06 86.088 10646.7 15344.1 
121 9.8594 9.8594 0 0.00878668 0.00878668 9.85312e-06 87.8668 10358.3 14863.1 
161 9.9576 9.9576 0 0.00885572 0.00885572 -2.65256e-06 88.5572 10050.4 14477.4 
201 9.828 9.828 0 0.00877483 0.00877483 -1.16584e-05 87.7483 10094.2 14574.8 
241 9.6024 9.6024 0 0.00863769 0.00863769 -1.99241e-05 86.3769 10495.9 15128.4 
281 8.9186 8.9186 0 0.00817279 0.00817279 -1.82227e-05 81.7279 11532.5 16550.1 
321 0.4672 0.4672 0 0.000495979 0.000495979 1.32869e-06 48.4888 12344.6 17381.1 
361 0.974 0.974 0 0.000353033 0.000353033 -6.81506e-07 8.93045 2439.5 3511.21 
401 0.99 0.99 0 0.000315333 0.000315333 -2.59786e-06 9.17175 2243.12 3132.8 
441 1.0136 1.0136 0 0.000326455 0.000326455 -3.93144e-06 9.6162 2513.1 3414.12 
481 0.9818 0.9818 0 0.000296762 0.000296762 3.75286e-06 9.29164 2230.19 2969.37 
521 0.9872 0.9872 0 0.000301664 0.000301664 8.74379e-06 9.24395 2288.78 3045.38 
561 0.9342 0.9342 0 0.000296401 0.000296401 -9.97783e-06 8.79468 2114.74 2794.92 
601 0.8238 0.8238 0 0.000289459 0.000289459 4.69818e-06 7.85476 1943.22 2575.22 
641 0.0234 0.0234 0 -7.5984e-07 -7.5984e-07 1.77097e-07 1.89586 427.573 553.233 
681 0.043 0.043 0 -3.36569e-05 -3.36569e-05 5.2302e-07 0.336569 39.0118 71.0014 
721 0.0628 0.0628 0 -5.23933e-05 -5.23933e-05 -7.78648e-07 0.523933 73.7958 118.129 
761 0.0624 0.0624 0 -5.24794e-05 -5.24794e-05 7.66713e-07 0.524794 79.8779 133.492 
801 0.0702 0.0702 0 -5.98216e-05 -5.98216e-05 -5.5789e-06 0.598216 80.7912 127.741 
841 0.0702 0.0702 0 -6.08871e-05 -6.08871e-05 5.94796e-06 0.608871 65.5408 110.418 
881 0.058 0.058 0 -4.80738e-05 -4.80738e-05 -9.85425e-07 0.480738 77.8663 119.737 
921 0.0486 0.0486 0 -4.02193e-05 -4.02193e-05 1.4568e-07 0.402193 53.5486 88.0526 
961 0.0128 0.0128 0 -3.36926e-06 -3.36926e-06 -9.88068e-07 0.994156 250.308 350.554 
1001 0.8192 0.8192 0 0.000286634 0.000286634 -3.87516e-06 7.78352 1891.59 2469.72 
1041 0.9274 0.9274 0 0.000287352 0.000287352 -9.18283e-06 8.70948 2086.9 2776.42 
1081 0.9564 0.9564 0 0.000275395 0.000275395 1.05624e-05 9.03901 2113.67 2866.41 
1121 0.9924 0.9924 0 0.000298102 0.000298102 -5.10521e-06 9.35922 2231.42 3008.85 
1161 0.967 0.967 0 0.000294188 0.000294188 1.67234e-06 9.10111 2285.83 3106.7 
1201 1.0152 1.0152 0 0.000339788 0.000339788 -5.96435e-06 9.51765 2562.13 3565.39 
1241 0.9554 0.9554 0 0.000333417 0.000333417 -1.19781e-05 8.74689 2274.79 3283.69 
2 0.1254 0.1254 0 7.52601e-05 7.52601e-05 -3.86968e-06 11.6934 3162.72 4793 
42 8.525 8.525 0 0.00789097 0.00789097 -3.77685e-05 78.9097 11687.1 16820.1 
82 9.5826 9.5826 0 0.00862946 0.00862946 -1.38008e-05 86.2946 10947.2 15651.9 
122 9.8716 9.8716 0 0.00880678 0.00880678 -5.98483e-06 88.0678 10170.4 14722.3 
162 9.972 9.972 0 0.00888153 0.00888153 -1.05445e-05 88.8153 10103.3 14658.1 
202 9.9312 9.9312 0 0.00883804 0.00883804 1.04734e-05 88.3804 10116.7 14735 
242 9.6348 9.6348 0 0.00864242 0.00864242 1.93971e-05 86.4242 10551.8 15133.2 
282 8.9046 8.9046 0 0.00816354 0.00816354 3.16383e-06 81.6354 11364.7 16409.1 
322 0.4126 0.4126 0 0.000436775 0.000436775 -1.6081e-07 42.9559 11953.5 16460.1 
362 0.9652 0.9652 0 0.000335834 0.000335834 -3.89023e-06 8.83496 2386.1 3402.22 
402 1.0022 1.0022 0 0.0003246 0.0003246 -4.32464e-06 9.3089 2328.84 3256.83 
442 0.9984 0.9984 0 0.000312114 0.000312114 -1.13777e-06 9.54506 2350.15 3176.37 
482 1.004 1.004 0 0.000309916 0.000309916 5.22364e-06 9.42846 2263.16 3062.43 
522 0.9488 0.9488 0 0.000294712 0.000294712 4.05864e-06 8.89964 2184.83 2866.03 
562 0.9294 0.9294 0 0.00028798 0.00028798 -1.78007e-06 8.83064 2131.35 2782.49 
602 0.8442 0.8442 0 0.000288275 0.000288275 -7.19841e-07 8.02502 1941.14 2587.24 
642 0.0194 0.0194 0 -2.57017e-06 -2.57017e-06 1.45649e-06 1.52635 285.67 501.227 
682 0.049 0.049 0 -3.89821e-05 -3.89821e-05 1.32255e-06 0.389821 55.3497 99.5377 
722 0.066 0.066 0 -5.6225e-05 -5.6225e-05 1.82633e-06 0.56225 66.868 123.645 
762 0.0718 0.0718 0 -6.05286e-05 -6.05286e-05 -5.61999e-08 0.605286 78.8413 142.967 
802 0.071 0.071 0 -6.06853e-05 -6.06853e-05 2.32042e-06 0.606853 85.1325 145.339 
842 0.0664 0.0664 0 -5.55863e-05 -5.55863e-05 5.99177e-07 0.555863 75.4325 131.93 
882 0.0602 0.0602 0 -4.89917e-05 -4.89917e-05 -5.10001e-07 0.489917 50.9534 109.732 
922 0.0476 0.0476 0 -3.72622e-05 -3.72622e-05 -1.13878e-06 0.372622 58.7371 100.848 
962 0.015 0.015 0 -2.44013e-06 -2.44013e-06 -3.92085e-07 1.06459 309.392 388.089 
1002 0.8386 0.8386 0 0.000298841 0.000298841 -1.65892e-06 7.89833 2005.11 2608.26 
1042 0.9248 0.9248 0 0.000289649 0.000289649 3.82918e-06 8.61568 2062.07 2745.72 
1082 0.9818 0.9818 0 0.000303207 0.000303207 4.71655e-06 9.14726 2174.05 2959.89 
1122 1.0008 1.0008 0 0.000299609 0.000299609 1.06096e-05 9.5127 2248.78 3022.07 
1162 0.9882 0.9882 0 0.000295533 0.000295533 2.65401e-06 9.2748 2262.5 3087.14 
1202 1.0082 1.0082 0 0.000325581 0.000325581 -1.45133e-05 9.44447 2423.91 3381.2 
1242 0.9402 0.9402 0 0.000345128 0.000345128 1.68617e-06 8.66339 2310.82 3329.56 
3 0.1392 0.1392 0 9.42054e-05 9.42054e-05 -1.1715e-06 13.2431 3527.59 5075.99 
43 8.694 8.694 0 0.00803018 0.00803018 6.11405e-06 80.3018 11993.4 17137.7 
83 9.564 9.564 0 0.00857905 0.00857905 2.29902e-05 85.7905 10508.8 15221.2 
123 9.8044 9.8044 0 0.00873288 0.00873288 1.09991e-05 87.3288 10184.2 14694.9 
163 9.9392 9.9392 0 0.00885132 0.00885132 -1.16619e-05 88.5132 9941.9 14469.3 
203 9.845 9.845 0 0.00873711 0.00873711 -1.92495e-05 87.3711 10064.1 14645 
243 9.587 9.587 0 0.00861927 0.00861927 9.70685e-06 86.1927 10599.6 15143.3 
283 8.837 8.837 0 0.00812498 0.00812498 1.23452e-05 81.2498 11600.9 16412.9 
323 0.3912 0.3912 0 0.000401974 0.000401974 -2.03259e-06 39.5667 11497.1 16320.5 
363 0.9292 0.9292 0 0.000329013 0.000329013 -3.56967e-07 8.48497 2235.25 3199.94 
403 1.0172 1.0172 0 0.000335261 0.000335261 -1.02444e-05 9.56577 2441.81 3348.36 
443 0.9954 0.9954 0 0.000316617 0.000316617 3.1493e-06 9.45393 2394.14 3245.42 
483 0.9844 0.9844 0 0.00030563 0.00030563 -5.35839e-06 9.32862 2200.59 2916.96 
523 0.9756 0.9756 0 0.000303916 0.000303916 7.86693e-06 9.28389 2236.64 2972.78 
563 0.9174 0.9174 0 0.000290279 0.000290279 -7.4435e-06 8.59892 2039.31 2754.21 
603 0.8418 0.8418 0 0.000290487 0.000290487 1.84782e-06 7.97675 1993.01 2611.18 
643 0.0184 0.0184 0 -2.91849e-06 -2.91849e-06 1.06024e-06 1.35635 292.827 465.559 
683 0.0472 0.0472 0 -3.90563e-05 -3.90563e-05 1.94988e-06 0.390563 63.4155 103.778 
723 0.056 0.056 0 -4.69881e-05 -4.69881e-05 5.53265e-07 0.469881 85.5593 116.153 
763 0.0708 0.0708 0 -5.91104e-05 -5.91104e-05 -2.52315e-06 0.591104 69.3375 123.729 
803 0.0664 0.0664 0 -5.86173e-05 -5.86173e-05 -1.30617e-06 0.586173 61.2764 109.158 
843 0.0656 0.0656 0 -5.54921e-05 -5.54921e-05 5.473e-08 0.554921 72.5311 142.022 
883 0.0656 0.0656 0 -5.23803e-05 -5.23803e-05 4.05891e-06 0.523803 97.6644 161.059 
923 0.044 0.044 0 -3.55727e-05 -3.55727e-05 8.7016e-07 0.355727 60.5428 94.2132 
963 0.0176 0.0176 0 -1.60049e-06 -1.60049e-06 -8.74778e-07 1.34666 345.308 456.351 
1003 0.8294 0.8294 0 0.000279069 0.000279069 1.67466e-06 7.79829 1931.35 2546.92 
1043 0.9468 0.9468 0 0.000273696 0.000273696 7.40677e-07 8.8855 2081.19 2764.34 
1083 0.9572 0.9572 0 0.000291266 0.000291266 -9.41386e-06 9.11668 2210.28 2999.67 
1123 0.9898 0.9898 0 0.000302214 0.000302214 -1.35235e-06 9.44422 2326.42 3129.06 
1163 1.0112 1.0112 0 0.00031092 0.00031092 -1.04255e-05 9.51144 2375.18 3225.99 
1203 0.9874 0.9874 0 0.000331897 0.000331897 2.49077e-06 9.21072 2484.51 3439.91 
1243 0.9416 0.9416 0 0.000336164 0.000336164 -5.94614e-06 8.69972 2323.45 3285.49 
4 0.1642 0.1642 0 0.000120645 0.000120645 2.96384e-07 15.5965 4501.8 6361.6 
44 8.633 8.633 0 0.00795777 0.00795777 -1.90382e-06 79.5777 11562.7 16650.6 
84 9.4536 9.4536 0 0.00849696 0.00849696 -3.06529e-06 84.9696 10685.8 15303.4 
124 9.784 9.784 0 0.00874025 0.00874025 -1.93316e-05 87.4025 10424.1 14906.7 
164 9.9472 9.9472 0 0.00884586 0.00884586 -2.32202e-05 88.4586 10046.4 14430.6 
204 9.827 9.827 0 0.00875806 0.00875806 1.2945e-05 87.5806 10092.3 14663 
244 9.6266 9.6266 0 0.00861602 0.00861602 7.85111e-06 86.1602 10531.2 15293.9 
284 8.8766 8.8766 0 0.00812977 0.00812977 -6.5127e-06 81.2977 11494 16455.1 
324 0.331 0.331 0 0.000332014 0.000332014 1.19382e-06 33.6792 9214.82 13016.9 
364 0.944 0.944 0 0.000334608 0.000334608 -8.90367e-06 8.63876 2333.6 3327.74 
404 1.0106 1.0106 0 0.000333855 0.000333855 7.11556e-06 9.36742 2447.87 3389.43 
444 1.0056 1.0056 0 0.000324152 0.000324152 3.70542e-06 9.52279 2461.45 3233.67 
484 0.9968 0.9968 0 0.000303622 0.000303622 1.04456e-05 9.40144 2317.43 3135.99 
524 0.9892 0.9892 0 0.000308532 0.000308532 -8.95781e-06 9.33747 2309.19 3062.25 
564 0.9362 0.9362 0 0.00028837 0.00028837 3.50069e-06 8.88139 2137.33 2786.97 
604 0.822 0.822 0 0.000272765 0.000272765 -4.25601e-06 7.76802 1859.7 2398.58 
644 0.0128 0.0128 0 -3.33693e-06 -3.33693e-06 5.93807e-07 0.979785 172.602 310.286 
684 0.053 0.053 0 -4.25278e-05 -4.25278e-05 -1.78611e-06 0.425278 51.9893 96.0063 
724 0.0594 0.0594 0 -5.06379e-05 -5.06379e-05 -1.21132e-06 0.506379 63.6278 125.374 
764 0.0624 0.0624 0 -5.49247e-05 -5.49247e-05 -3.46703e-06 0.549247 84.4101 132.331 
804 0.0632 0.0632 0 -5.44805e-05 -5.44805e-05 -5.82934e-07 0.544805 59.2827 118.038 
844 0.069 0.069 0 -5.70274e-05 -5.70274e-05 2.02484e-06 0.570274 94.2885 156.965 
884 0.0612 0.0612 0 -5.41755e-05 -5.41755e-05 3.40029e-07 0.541755 79.2876 126.26 
924 0.0462 0.0462 0 -3.72622e-05 -3.72622e-05 1.09286e-07 0.372622 53.6965 82.7047 
964 0.0246 0.0246 0 9.97406e-07 9.97406e-07 -1.32577e-06 2.00158 563.286 730.524 
1004 0.8428 0.8428 0 0.000282418 0.000282418 -9.29166e-06 7.93506 1928.61 2544.82 
1044 0.9474 0.9474 0 0.000289767 0.000289767 -4.99762e-06 8.87188 2142.56 2777.94 
1084 0.9682 0.9682 0 0.000289351 0.000289351 6.90585e-06 9.15144 2141.88 2865.99 
1124 0.988 0.988 0 0.000305038 0.000305038 8.60721e-06 9.39745 2259.52 3037.27 
1164 0.9954 0.9954 0 0.00031427 0.00031427 -4.58525e-06 9.3805 2367.17 3236.32 
1204 0.9758 0.9758 0 0.000344089 0.000344089 9.26896e-06 9.18478 2465.92 3357.78 
1244 0.9622 0.9622 0 0.000335242 0.000335242 5.46212e-06 8.83615 2336.71 3376.65 
5 0.209 0.209 0 0.000173624 0.000173624 -1.69134e-06 20.5089 5737.28 8437.15 
45 8.6378 8.6378 0 0.00797165 0.00797165 -1.67179e-06 79.7165 11499.5 16523.7 
85 9.5326 9.5326 0 0.00858437 0.00858437 -1.38885e-05 85.8437 10578.6 15232.6 
125 9.8186 9.8186 0 0.00876557 0.00876557 1.4695e-05 87.6557 10247.4 14807.9 
165 9.8878 9.8878 0 0.00879405 0.00879405 -5.63741e-06 87.9405 10088.1 14525.9 
205 9.8822 9.8822 0 0.00877608 0.00877608 -2.34731e-06 87.7608 10118.9 14686.1 
245 9.63 9.63 0 0.00862786 0.00862786 1.97549e-05 86.2786 10785.9 15622.4 
285 8.855 8.855 0 0.00811581 0.00811581 -1.35348e-06 81.1581 11682.4 16758.7 
325 0.2856 0.2856 0 0.000279805 0.000279805 4.47627e-06 28.5531 8590.83 11896.5 
365 0.9474 0.9474 0 0.000320808 0.000320808 -2.00801e-06 8.71428 2298.62 3309.41 
405 0.9788 0.9788 0 0.000319884 0.000319884 -3.53202e-06 9.12872 2312.99 3260.97 
445 1.0118 1.0118 0 0.000303431 0.000303431 -5.12706e-06 9.53158 2255.96 3040.68 
485 1.0106 1.0106 0 0.000312701 0.000312701 7.47443e-06 9.41356 2302.28 3133.63 
525 0.9738 0.9738 0 0.000286915 0.000286915 -1.25814e-06 9.14951 2166.91 2928.91 
565 0.9388 0.9388 0 0.000291813 0.000291813 -1.06138e-05 8.90602 2160.5 2838.31 
605 0.8242 0.8242 0 0.000286193 0.000286193 3.71725e-07 7.74241 1933.2 2560.15 
645 0.0104 0.0104 0 -3.20728e-06 -3.20728e-06 -6.83144e-08 0.78566 263.74 323.875 
685 0.0556 0.0556 0 -4.73938e-05 -4.73938e-05 9.77012e-07 0.473938 71.8001 106.458 
725 0.0638 0.0638 0 -5.4245e-05 -5.4245e-05 5.12193e-08 0.54245 71.7533 121.219 
765 0.065 0.065 0 -5.43411e-05 -5.43411e-05 -1.65727e-06 0.543411 77.7309 133.387 
805 0.072 0.072 0 -6.12102e-05 -6.12102e-05 3.60551e-06 0.612102 87.5301 145.931 
845 0.0668 0.0668 0 -5.65113e-05 -5.65113e-05 2.97726e-07 0.565113 71.2949 127.508 
885 0.0638 0.0638 0 -5.24525e-05 -5.24525e-05 1.68824e-06 0.524525 87.3484 146.21 
925 0.044 0.044 0 -3.63995e-05 -3.63995e-05 4.44058e-07 0.363995 47.6133 87.2353 
965 0.0292 0.0292 0 1.94179e-06 1.94179e-06 -4.61855e-08 2.48951 774.9 1111.85 
1005 0.8412 0.8412 0 0.000290934 0.000290934 -3.4012e-06 7.98343 1993.9 2581.85 
1045 0.9232 0.9232 0 0.00027861 0.00027861 4.57707e-06 8.67496 2042.13 2733.01 
1085 0.9842 0.9842 0 0.000292241 0.000292241 -1.44261e-05 9.14683 2199.86 2939.73 
1125 0.9948 0.9948 0 0.000292571 0.000292571 5.18316e-06 9.33169 2245.5 3008.41 
1165 0.9956 0.9956 0 0.000320457 0.000320457 -6.86424e-08 9.44842 2405.93 3181.62 
1205 0.9844 0.9844 0 0.000325055 0.000325055 1.90823e-07 9.25236 2403.16 3342.86 
1245 0.9314 0.9314 0 0.000336461 0.000336461 6.90654e-06 8.53308 2259.92 3217.73 
6 0.2206 0.2206 0 0.000186983 0.000186983 -3.29202e-06 21.0884 6290.69 8860.25 
46 8.7564 8.7564 0 0.00803183 0.00803183 5.40311e-06 80.3183 11553.3 16462.8 
86 9.5804 9.5804 0 0.00859348 0.00859348 3.27342e-05 85.9348 10626 15396.9 
126 9.8716 9.8716 0 0.00880182 0.00880182 -2.66836e-05 88.0182 10194.5 14666.6 
166 9.8868 9.8868 0 0.0087933 0.0087933 6.29322e-06 87.933 10024.9 14369.3 
206 9.9144 9.9144 0 0.00882851 0.00882851 3.30361e-06 88.2851 10200.5 14734.4 
246 9.543 9.543 0 0.00858462 0.00858462 -2.57383e-05 85.8462 10558.2 15257.3 
286 8.75 8.75 0 0.00803685 0.00803685 -4.05309e-05 80.3685 11556.1 16413.1 
326 0.2616 0.2616 0 0.000238545 0.000238545 -2.88499e-07 25.4864 7016.61 9933.15 
366 0.9552 0.9552 0 0.000347074 0.000347074 -8.36402e-06 8.87395 2396.85 3390.01 
406 1.0186 1.0186 0 0.000325135 0.000325135 -3.57043e-06 9.46224 2420.53 3332.9 
446 0.9728 0.9728 0 0.000300027 0.000300027 1.26922e-06 9.21464 2324.7 3194.67 
486 0.978 0.978 0 0.000288737 0.000288737 -5.27384e-06 9.31646 2249.7 3019.48 
526 0.9562 0.9562 0 0.000269357 0.000269357 1.06491e-05 8.96942 2003.79 2719.19 
566 0.909 0.909 0 0.000270768 0.000270768 -2.58329e-06 8.63281 1974.29 2682.68 
606 0.8016 0.8016 0 0.000293352 0.000293352 4.35539e-06 7.60125 1960.5 2536.79 
646 0.0086 0.0086 0 -2.96117e-06 -2.96117e-06 1.02208e-06 0.524636 159.534 222.43 
686 0.0508 0.0508 0 -4.16711e-05 -4.16711e-05 -3.04858e-07 0.416711 53.9863 88.5635 
726 0.0654 0.0654 0 -5.44407e-05 -5.44407e-05 -1.58728e-06 0.544407 71.8628 132.427 
766 0.0732 0.0732 0 -6.2871e-05 -6.2871e-05 -5.91637e-07 0.62871 70.8283 133.226 
806 0.0694 0.0694 0 -6.01612e-05 -6.01612e-05 3.68823e-07 0.601612 66.5636 112.799 
846 0.0666 0.0666 0 -5.66278e-05 -5.66278e-05 -6.48076e-07 0.566278 81.9046 144.589 
886 0.0524 0.0524 0 -4.54068e-05 -4.54068e-05 6.04386e-07 0.454068 50.2563 83.9235 
926 0.0512 0.0512 0 -4.18176e-05 -4.18176e-05 1.58629e-06 0.418176 50.5193 98.0003 
966 0.0372 0.0372 0 6.31361e-06 6.31361e-06 -1.63588e-06 3.49346 1124.07 1563.02 
1006 0.8602 0.8602 0 0.00028837 0.00028837 -4.34073e-06 8.22917 1996.39 2607.32 
1046 0.9348 0.9348 0 0.000278658 0.000278658 2.57489e-06 8.73538 2081.12 2796.17 
1086 0.9668 0.9668 0 0.000298173 0.000298173 -8.39521e-06 9.04405 2190.21 2925.87 
1126 0.9808 0.9808 0 0.000301122 0.000301122 -3.25164e-06 9.37347 2314.43 3114.82 
1166 1.0174 1.0174 0 0.000325912 0.000325912 1.35915e-07 9.55552 2448.09 3323.65 
1206 0.9788 0.9788 0 0.000337908 0.000337908 -6.7137e-07 8.97741 2394.19 3304.98 
1246 0.9386 0.9386 0 0.000324163 0.000324163 7.64565e-06 8.55956 2293.68 3288.96 
7 0.2558 0.2558 0 0.0002386 0.0002386 4.1033e-06 25.3101 7605.01 10740.2 
47 8.8408 8.8408 0 0.00809959 0.00809959 1.04779e-05 80.9959 11750 16692.9 
87 9.5866 9.5866 0 0.00858992 0.00858992 8.50802e-06 85.8992 10620.5 15223.6 
127 9.8232 9.8232 0 0.00875041 0.00875041 4.27631e-05 87.5041 10143.8 14632 
167 9.8944 9.8944 0 0.00876962 0.00876962 1.99346e-05 87.6962 9981.48 14440.3 
207 9.8402 9.8402 0 0.00880138 0.00880138 2.45511e-05 88.0138 10274.6 14771 
247 9.546 9.546 0 0.00858352 0.00858352 -4.07597e-05 85.8352 10489.4 15136.3 
287 8.6898 8.6898 0 0.00798232 0.00798232 -6.00082e-06 79.8232 11528 16584.7 
327 0.2288 0.2288 0 0.000195987 0.000195987 -4.16308e-06 22.5249 6332.77 9294.43 
367 0.9774 0.9774 0 0.00033628 0.00033628 4.06184e-06 8.94313 2351.57 3363.01 
407 0.9832 0.9832 0 0.000318047 0.000318047 -6.41536e-08 9.16983 2385.04 3244.32 
447 0.9972 0.9972 0 0.000313041 0.000313041 7.51775e-06 9.35264 2360.33 3208.46 
487 0.9766 0.9766 0 0.000304141 0.000304141 -8.95515e-06 9.23849 2275.94 3045.44 
527 0.975 0.975 0 0.000282026 0.000282026 -7.2106e-06 9.18314 2161.44 2882 
567 0.935 0.935 0 0.000288198 0.000288198 -9.62025e-06 8.81599 2099.24 2798.27 
607 0.8204 0.8204 0 0.000297835 0.000297835 3.65311e-06 7.81026 2006.5 2563.66 
647 0.0078 0.0078 0 -4.52372e-06 -4.52372e-06 6.17432e-07 0.601519 96.6602 155.471 
687 0.0498 0.0498 0 -4.07769e-05 -4.07769e-05 1.3116e-06 0.407769 45.8218 92.573 
727 0.0608 0.0608 0 -5.16014e-05 -5.16014e-05 1.4107e-06 0.516014 76.5433 118.542 
767 0.0668 0.0668 0 -5.74501e-05 -5.74501e-05 2.64294e-07 0.574501 82.1793 140.598 
807 0.0678 0.0678 0 -5.83903e-05 -5.83903e-05 2.37285e-07 0.583903 80.2615 137.515 
847 0.0668 0.0668 0 -5.65851e-05 -5.65851e-05 2.63135e-07 0.565851 88.2878 140.806 
887 0.0586 0.0586 0 -5.11508e-05 -5.11508e-05 -1.45965e-06 0.511508 65.267 107.923 
927 0.0544 0.0544 0 -4.18692e-05 -4.18692e-05 -4.9975e-07 0.418692 68.8282 99.3235 
967 0.042 0.042 0 1.09151e-05 1.09151e-05 1.65737e-06 4.04929 1273.79 1646.12 
1007 0.8592 0.8592 0 0.000295714 0.000295714 1.32895e-06 8.1475 2034.84 2696.14 
1047 0.931 0.931 0 0.000284718 0.000284718 1.05478e-06 8.71837 2024.82 2721.16 
1087 0.9606 0.9606 0 0.000287775 0.000287775 3.03541e-06 9.12926 2160.55 2904.99 
1127 0.979 0.979 0 0.000292244 0.000292244 -5.97611e-06 9.22822 2141.71 2884.48 
1167 1.0028 1.0028 0 0.000309605 0.000309605 6.92963e-06 9.43935 2336.68 3184.42 
1207 1.01 1.01 0 0.000343136 0.000343136 -1.39057e-05 9.54188 2465.03 3420.57 
1247 0.9534 0.9534 0 0.000332392 0.000332392 -8.19323e-06 8.79165 2375.16 3372.12 
8 0.2934 0.2934 0 0.000279876 0.000279876 -3.9392e-07 28.8694 8077.53 11561.7 
48 8.8158 8.8158 0 0.00810654 0.00810654 8.44305e-07 81.0654 11568.9 16564.3 
88 9.5858 9.5858 0 0.00861613 0.00861613 -5.20137e-06 86.1613 10579.1 15307.7 
128 9.8082 9.8082 0 0.00871157 0.00871157 5.57497e-06 87.1157 10084.9 14601.6 
168 10.0602 10.0602 0 0.00893219 0.00893219 -1.93826e-05 89.3219 10311.5 14702.5 
208 9.9422 9.9422 0 0.00887632 0.00887632 3.82128e-06 88.7632 10216.7 14742.8 
248 9.5536 9.5536 0 0.00859293 0.00859293 3.51822e-05 85.9293 10667.9 15452.2 
288 8.6832 8.6832 0 0.00795282 0.00795282 -1.20724e-05 79.5282 11474 16505.4 
328 0.1978 0.1978 0 0.000155121 0.000155121 -9.38713e-07 18.535 5100.15 7462.51 
368 0.9654 0.9654 0 0.000327236 0.000327236 5.98139e-06 8.83395 2324.89 3338.49 
408 1.0058 1.0058 0 0.00032989 0.00032989 -6.27015e-06 9.4668 2483.12 3356.83 
448 0.9898 0.9898 0 0.000309018 0.000309018 -1.4876e-05 9.32952 2360.46 3204.7 
488 1.0086 1.0086 0 0.00030894 0.00030894 4.36306e-07 9.38146 2219.6 2986.03 
528 0.969 0.969 0 0.000295703 0.000295703 -2.08867e-06 9.11173 2185.67 2922.02 
568 0.9278 0.9278 0 0.000283522 0.000283522 -1.25874e-06 8.68444 2100.56 2808.01 
608 0.8062 0.8062 0 0.000280723 0.000280723 8.13029e-06 7.58318 1877.83 2433.92 
648 0.0042 0.0042 0 -1.9213e-06 -1.9213e-06 7.54598e-07 0.257394 20.6383 55.7819 
688 0.0498 0.0498 0 -4.03233e-05 -4.03233e-05 5.80504e-07 0.403233 62.9367 100.912 
728 0.0554 0.0554 0 -4.66867e-05 -4.66867e-05 -1.15528e-06 0.466867 81.1875 137.245 
768 0.0712 0.0712 0 -5.86692e-05 -5.86692e-05 1.1551e-06 0.586692 92.4884 148.051 
808 0.067 0.067 0 -5.92983e-05 -5.92983e-05 -1.37098e-08 0.592983 92.204 153.028 
848 0.0676 0.0676 0 -5.86102e-05 -5.86102e-05 -2.34417e-06 0.586102 77.0984 131.995 
888 0.0576 0.0576 0 -4.91746e-05 -4.91746e-05 4.93428e-07 0.491746 69.3587 111.854 
928 0.0448 0.0448 0 -3.57825e-05 -3.57825e-05 -5.4516e-07 0.357825 45.8444 79.86 
968 0.049 0.049 0 1.69763e-05 1.69763e-05 1.92576e-06 4.39961 1468.19 2007.5 
1008 0.8598 0.8598 0 0.000296659 0.000296659 6.73524e-07 8.01692 2034.74 2644.42 
1048 0.9614 0.9614 0 0.000289605 0.000289605 -1.00718e-07 9.06018 2155.2 2876.44 
1088 0.9772 0.9772 0 0.000299936 0.000299936 -1.11337e-05 9.23914 2223.37 3016.24 
1128 0.9766 0.9766 0 0.000296044 0.000296044 3.99632e-06 9.29456 2241.84 3016.79 
1168 0.9934 0.9934 0 0.000310108 0.000310108 -2.11248e-06 9.33741 2296.94 3149.19 
1208 0.995 0.995 0 0.000345595 0.000345595 3.05253e-06 9.23862 2445.66 3350.12 
1248 0.9448 0.9448 0 0.000347193 0.000347193 1.22088e-05 8.71106 2384.73 3435.28 
9 0.3238 0.3238 0 0.000331108 0.000331108 7.17111e-06 33.394 9267.89 12968.2 
49 8.916 8.916 0 0.00818646 0.00818646 -6.13167e-06 81.8646 11872.2 16890.3 
89 9.6514 9.6514 0 0.00863758 0.00863758 -1.026e-05 86.3758 10510.7 15182.2 
129 9.8626 9.8626 0 0.00880265 0.00880265 -2.74058e-05 88.0265 10173.8 14671.3 
169 9.9584 9.9584 0 0.00884541 0.00884541 1.90825e-05 88.4541 10063.7 14538 
209 9.7886 9.7886 0 0.00872967 0.00872967 -8.4643e-07 87.2967 10006.1 14557.6 
249 9.5866 9.5866 0 0.00859118 0.00859118 9.4822e-06 85.9118 10563.4 15216.2 
289 8.7612 8.7612 0 0.008069 0.008069 1.27554e-05 80.69 11873.4 16905.3 
329 0.1678 0.1678 0 0.000129891 0.000129891 -1.08517e-06 16.1223 4508.19 6585.13 
369 0.976 0.976 0 0.000335423 0.000335423 1.02026e-05 9.00366 2360.36 3358.11 
409 1.0082 1.0082 0 0.000329635 0.000329635 2.75293e-06 9.60552 2468.52 3437.62 
449 1.0068 1.0068 0 0.000305537 0.000305537 -8.92013e-06 9.49349 2278.78 3087.76 
489 0.9864 0.9864 0 0.000303992 0.000303992 1.02685e-05 9.35614 2264.46 3073.74 
529 0.9766 0.9766 0 0.00030071 0.00030071 6.76683e-06 9.26249 2266.72 3007.48 
569 0.9016 0.9016 0 0.000284322 0.000284322 -4.70752e-06 8.44793 2007.88 2708.48 
609 0.8046 0.8046 0 0.000285094 0.000285094 4.85396e-06 7.62381 1842.47 2462.88 
649 0.0054 0.0054 0 -3.47359e-06 -3.47359e-06 1.37168e-07 0.370667 45.9925 118.865 
689 0.0518 0.0518 0 -4.19171e-05 -4.19171e-05 -2.44793e-06 0.419171 56.6408 93.2657 
729 0.0572 0.0572 0 -4.99389e-05 -4.99389e-05 1.54701e-06 0.499389 74.8152 123.929 
769 0.0616 0.0616 0 -5.44897e-05 -5.44897e-05 -2.19222e-06 0.544897 65.2845 121.621 
809 0.0674 0.0674 0 -5.76295e-05 -5.76295e-05 -2.97781e-06 0.576295 82.0673 130.737 
849 0.0704 0.0704 0 -6.0202e-05 -6.0202e-05 3.38262e-06 0.60202 85.7626 137.805 
889 0.055 0.055 0 -4.7454e-05 -4.7454e-05 1.62484e-06 0.47454 61.6223 103.851 
929 0.0488 0.0488 0 -3.67961e-05 -3.67961e-05 -9.11429e-07 0.367961 45.4783 80.197 
969 0.0618 0.0618 0 2.43441e-05 2.43441e-05 -6.38146e-07 5.88815 1636.25 2153.64 
1009 0.8528 0.8528 0 0.000291584 0.000291584 -8.3976e-06 8.07912 1974.06 2646.48 
1049 0.9238 0.9238 0 0.000282995 0.000282995 -7.26166e-06 8.71979 2066.23 2721.42 
1089 0.9558 0.9558 0 0.000296915 0.000296915 1.83902e-06 8.91932 2169.64 2905.03 
1129 0.9878 0.9878 0 0.000295231 0.000295231 -8.73941e-06 9.2768 2302.15 3074.19 
1169 0.986 0.986 0 0.000322017 0.000322017 -3.80477e-06 9.34289 2414.33 3284.22 
1209 1 1 0 0.000328565 0.000328565 -3.20787e-06 9.31419 2452.32 3338.16 
1249 0.9394 0.9394 0 0.000340913 0.000340913 1.70326e-05 8.50882 2282.79 3295.41 
10 0.357 0.357 0 0.000367766 0.000367766 9.8764e-06 36.0836 9991.68 14135.1 
50 8.8294 8.8294 0 0.00807054 0.00807054 1.35381e-05 80.7054 11255.8 16074.8 
90 9.6612 9.6612 0 0.00862434 0.00862434 -1.06509e-05 86.2434 10578.5 15476.1 
130 9.8706 9.8706 0 0.00877224 0.00877224 -3.13611e-06 87.7224 10235.6 14590.1 
170 9.7266 9.7266 0 0.00865237 0.00865237 -1.42609e-05 86.5237 9699.46 14224.3 
210 9.7966 9.7966 0 0.00874247 0.00874247 -4.45983e-05 87.4247 10100.6 14604.7 
250 9.4146 9.4146 0 0.00847811 0.00847811 -8.81683e-06 84.7811 10553.9 15161.3 
290 8.6228 8.6228 0 0.00799385 0.00799385 -4.15875e-06 79.9385 11596.2 16704.8 
330 0.1448 0.1448 0 0.000101523 0.000101523 5.21575e-06 13.5335 3577.03 5446.96 
370 0.9854 0.9854 0 0.000335765 0.000335765 -3.036e-06 9.05869 2404.18 3421.62 
410 1.022 1.022 0 0.000344206 0.000344206 5.60109e-06 9.62562 2476.9 3345.92 
450 1.0082 1.0082 0 0.000318103 0.000318103 -4.69724e-06 9.45871 2360.56 3197.01 
490 0.9948 0.9948 0 0.000297355 0.000297355 -6.06502e-06 9.32264 2158.62 2980.72 
530 0.9688 0.9688 0 0.000282035 0.000282035 1.31978e-06 9.15524 2102.85 2772.38 
570 0.9096 0.9096 0 0.000267753 0.000267753 2.31375e-06 8.62508 1943.36 2626.77 
610 0.8078 0.8078 0 0.000283846 0.000283846 -2.0758e-06 7.6528 1969.53 2520.15 
650 0.0044 0.0044 0 -3.26203e-06 -3.26203e-06 9.81369e-07 0.34411 59.4714 122.894 
690 0.0524 0.0524 0 -3.98541e-05 -3.98541e-05 6.58367e-07 0.398541 62.6605 112.387 
730 0.0578 0.0578 0 -4.76972e-05 -4.76972e-05 1.14745e-06 0.476972 81.0494 129.275 
770 0.0702 0.0702 0 -5.95599e-05 -5.95599e-05 -1.17356e-06 0.595599 75.7494 134.433 
810 0.0668 0.0668 0 -5.75101e-05 -5.75101e-05 -2.00176e-06 0.575101 68.0912 146.734 
850 0.0678 0.0678 0 -5.61506e-05 -5.61506e-05 5.77536e-08 0.561506 65.6837 121.908 
890 0.0622 0.0622 0 -5.36501e-05 -5.36501e-05 -4.49555e-07 0.536501 87.6243 138.604 
930 0.049 0.049 0 -3.95487e-05 -3.95487e-05 -9.09748e-07 0.395487 55.4092 103.525 
970 0.1734 0.1734 0 8.38897e-05 8.38897e-05 -1.40699e-06 6.68965 1928.79 2443.75 
1010 0.8632 0.8632 0 0.000283663 0.000283663 6.07617e-06 8.14213 1989.7 2602.64 
1050 0.9494 0.9494 0 0.000293703 0.000293703 -2.27408e-06 8.97036 2154.72 2821.24 
1090 0.979 0.979 0 0.000281464 0.000281464 -1.51544e-06 9.20016 2102.03 2906.15 
1130 0.9934 0.9934 0 0.000315508 0.000315508 1.32302e-05 9.36909 2302.48 3139.88 
1170 1.0326 1.0326 0 0.000332529 0.000332529 -3.01607e-06 9.66661 2517.72 3408.77 
1210 0.9774 0.9774 0 0.000339607 0.000339607 1.80825e-05 9.02812 2348.17 3267.12 
1250 0.9456 0.9456 0 0.000326555 0.000326555 -6.90939e-06 8.62496 2275.83 3366.29 
11 0.4154 0.4154 0 0.000442361 0.000442361 -6.33265e-06 43.1259 11742.4 16625.1 
51 8.956 8.956 0 0.00821349 0.00821349 -2.20747e-05 82.1349 11669.6 16617.5 
91 9.7072 9.7072 0 0.0086877 0.0086877 3.15104e-05 86.877 10475.4 15221.8 
131 9.9046 9.9046 0 0.00881425 0.00881425 1.42934e-05 88.1425 10277.5 14803.2 
171 10.0286 10.0286 0 0.00888895 0.00888895 -1.83389e-06 88.8895 10111.5 14699 
211 9.8834 9.8834 0 0.00883629 0.00883629 -2.38954e-05 88.3629 10288.7 14987.3 
251 9.5222 9.5222 0 0.00857734 0.00857734 -9.8228e-07 85.7734 10690.2 15461.5 
291 8.6736 8.6736 0 0.00802189 0.00802189 2.01255e-05 80.2189 12066.7 17082.2 
331 0.1258 0.1258 0 7.13279e-05 7.13279e-05 -2.46115e-06 10.9847 3166.68 4640.17 
371 0.9672 0.9672 0 0.000343295 0.000343295 -2.14934e-06 8.96629 2369.4 3249.84 
411 0.9902 0.9902 0 0.000325806 0.000325806 1.40296e-05 9.27326 2411.86 3343.83 
451 1.024 1.024 0 0.000318284 0.000318284 9.08721e-06 9.54386 2365.07 3215.2 
491 1.0106 1.0106 0 0.000306664 0.000306664 2.32311e-06 9.44969 2204.66 2987.09 
531 1.006 1.006 0 0.000304439 0.000304439 -5.05663e-06 9.48913 2268.78 2966.8 
571 0.9146 0.9146 0 0.000286349 0.000286349 -4.1816e-06 8.59336 2015.72 2709.47 
611 0.8134 0.8134 0 0.000305461 0.000305461 -2.21636e-06 7.56651 2042.23 2641.94 
651 0.0044 0.0044 0 -3.3422e-06 -3.3422e-06 -5.22217e-07 0.341982 9.06116 12.4756 
691 0.0488 0.0488 0 -3.87779e-05 -3.87779e-05 2.2363e-07 0.387779 50.154 80.0888 
731 0.058 0.058 0 -4.7188e-05 -4.7188e-05 1.92005e-06 0.47188 60.3729 90.6042 
771 0.0724 0.0724 0 -6.14406e-05 -6.14406e-05 -1.62185e-06 0.614406 97.6882 140.954 
811 0.0724 0.0724 0 -6.35789e-05 -6.35789e-05 -8.81134e-07 0.635789 90.5349 148.506 
851 0.0632 0.0632 0 -5.44082e-05 -5.44082e-05 1.32846e-07 0.544082 91.398 133.173 
891 0.059 0.059 0 -4.94538e-05 -4.94538e-05 -1.97845e-06 0.494538 78.7112 137.628 
931 0.0414 0.0414 0 -3.34392e-05 -3.34392e-05 -2.87763e-07 0.334392 44.6793 85.0903 
971 0.165 0.165 0 7.56322e-05 7.56322e-05 -5.62127e-06 6.55174 1995.71 2508.42 
1011 0.8708 0.8708 0 0.000297788 0.000297788 3.15786e-06 8.22967 2067.27 2708.68 
1051 0.9356 0.9356 0 0.000287081 0.000287081 5.98699e-06 8.72621 2068.9 2754.86 
1091 0.9618 0.9618 0 0.000296432 0.000296432 -3.13558e-06 9.06599 2221.75 2954.92 
1131 0.9938 0.9938 0 0.000299635 0.000299635 -3.11634e-06 9.47223 2265.16 3035.46 
1171 0.9968 0.9968 0 0.000307196 0.000307196 -5.38727e-06 9.31161 2339.22 3191.64 
1211 0.9836 0.9836 0 0.000325305 0.000325305 -7.25128e-06 9.21489 2431.49 3370.66 
1251 0.9238 0.9238 0 0.000338002 0.000338002 -5.12176e-06 8.34623 2246.69 3284.88 
12 0.4486 0.4486 0 0.000472989 0.000472989 -5.65366e-07 46.2067 12250.3 17263.8 
52 8.876 8.876 0 0.00812309 0.00812309 2.79093e-07 81.2309 11387.8 16361.4 
92 9.606 9.606 0 0.00861448 0.00861448 2.74032e-05 86.1448 10526.9 14995.4 
132 9.8864 9.8864 0 0.00877545 0.00877545 -3.84963e-06 87.7545 10122.9 14602.7 
172 9.9236 9.9236 0 0.00883955 0.00883955 -1.98876e-06 88.3955 10199.9 14685.1 
212 9.8374 9.8374 0 0.00876572 0.00876572 -4.99524e-06 87.6572 10176.5 14669.2 
252 9.4492 9.4492 0 0.00850237 0.00850237 -4.66284e-07 85.0237 10762.1 15489.8 
292 8.477 8.477 0 0.0078683 0.0078683 -1.60346e-05 78.683 11744.7 16855.8 
332 0.1114 0.1114 0 5.25177e-05 5.25177e-05 1.17516e-06 9.8754 2348.59 3768.2 
372 0.9692 0.9692 0 0.000336659 0.000336659 -7.2537e-06 9.04326 2422.18 3426.44 
412 0.9786 0.9786 0 0.000305894 0.000305894 7.26848e-06 9.14932 2305.73 3182.08 
452 0.9894 0.9894 0 0.000306604 0.000306604 3.08157e-06 9.44114 2305.42 3130.48 
492 0.9916 0.9916 0 0.000304309 0.000304309 9.46433e-06 9.35311 2377.67 3117.16 
532 0.9572 0.9572 0 0.000290458 0.000290458 8.06469e-06 9.09959 2141.57 2880.18 
572 0.9138 0.9138 0 0.000285769 0.000285769 7.87876e-06 8.5114 2038.97 2702.25 
612 0.7934 0.7934 0 0.00028595 0.00028595 9.2522e-06 7.48415 1888.85 2471.26 