ITEM: TIMESTEP
20000
ITEM: NUMBER OF SURFS
1272
ITEM: BOX BOUNDS oo rr pp
0 0.3
0 0.3
-0.5 0.5
ITEM: SURFS id f_4[1] f_4[2] f_4[3] f_4[4] f_4[5] f_4[6] f_4[7] f_4[8] f_4[9] 
1 0.1456 0.1456 0 1.14061e-05 1.14061e-05 3.98827e-07 1.44328 815.672 929.997 
41 7.295 7.295 0 0.000966852 0.000966852 -6.8592e-08 9.66852 3703.32 4344.43 
81 7.765 7.765 0 0.000965345 0.000965345 1.42922e-06 9.65345 3407.87 4086.76 
121 7.8076 7.8076 0 0.000943424 0.000943424 -2.98157e-07 9.43424 3193.78 3864.71 
161 7.934 7.934 0 0.000950041 0.000950041 -3.85218e-07 9.50041 3203.51 3890.34 
201 7.9288 7.9288 0 0.000957864 0.000957864 4.51688e-07 9.57864 3260.85 3930.75 
241 7.7018 7.7018 0 0.000949805 0.000949805 1.15076e-06 9.49805 3312.23 4002.36 
281 7.4634 7.4634 0 0.000962437 0.000962437 -7.59499e-07 9.62437 3570.38 4230.15 
321 0.5492 0.5492 0 8.04091e-05 8.04091e-05 6.90237e-07 8.02386 3673.9 4217.54 
361 0.963 0.963 0 6.30571e-05 6.30571e-05 -4.37889e-08 0.89422 487.747 570.817 
401 0.8982 0.8982 0 6.05195e-05 6.05195e-05 -1.37406e-06 0.836049 464.819 543.846 
441 0.8966 0.8966 0 6.26437e-05 6.26437e-05 -1.75827e-06 0.847481 470.753 547.05 
481 0.8628 0.8628 0 6.20115e-05 6.20115e-05 -1.33923e-06 0.810092 461.125 528.767 
521 0.8326 0.8326 0 6.10502e-05 6.10502e-05 2.68246e-07 0.781323 454.024 520.99 
561 0.7926 0.7926 0 5.86942e-05 5.86942e-05 1.44605e-08 0.74067 428.534 488.015 
601 0.7414 0.7414 0 5.80929e-05 5.80929e-05 2.27855e-07 0.701742 425.366 482.104 
641 0.0106 0.0106 0 1.5254e-07 1.5254e-07 3.45192e-08 0.0722097 26.5578 35.8243 
681 0.0028 0.0028 0 -1.93298e-07 -1.93298e-07 9.66322e-08 0.00193298 -0.0437441 0.190259 
721 0.0028 0.0028 0 -1.44993e-07 -1.44993e-07 3.17939e-08 0.00144993 0.103161 0.238781 
761 0.001 0.001 0 -6.96581e-08 -6.96581e-08 7.90377e-10 0.000696581 -0.0604828 -0.0139338 
801 0.002 0.002 0 -1.29746e-07 -1.29746e-07 8.00802e-08 0.00129746 0.0511559 0.159308 
841 0.003 0.003 0 -1.67273e-07 -1.67273e-07 -1.63431e-08 0.00167273 0.449305 0.815886 
881 0.0018 0.0018 0 -7.84889e-08 -7.84889e-08 6.04941e-09 0.000784889 0.282471 0.494215 
921 0.0036 0.0036 0 -1.55782e-07 -1.55782e-07 7.27322e-08 0.00155782 0.251823 0.368246 
961 0.0026 0.0026 0 -4.76531e-08 -4.76531e-08 2.2731e-08 0.0190695 4.35755 6.11245 
1001 0.7508 0.7508 0 5.79823e-05 5.79823e-05 3.41758e-07 0.702977 423.555 484.412 
1041 0.7852 0.7852 0 5.76949e-05 5.76949e-05 -1.93763e-07 0.738684 437.181 498.938 
1081 0.8262 0.8262 0 5.98635e-05 5.98635e-05 3.4926e-07 0.779688 443.734 514.522 
1121 0.8394 0.8394 0 5.82448e-05 5.82448e-05 3.77764e-07 0.779664 441.771 506.073 
1161 0.8882 0.8882 0 5.8796e-05 5.8796e-05 8.4258e-07 0.837642 449.144 523.413 
1201 0.9204 0.9204 0 6.48695e-05 6.48695e-05 7.40751e-08 0.870835 493.939 578.419 
1241 0.9566 0.9566 0 6.26648e-05 6.26648e-05 -5.24599e-07 0.888086 482.52 573.353 
2 0.1744 0.1744 0 1.55996e-05 1.55996e-05 -5.4714e-07 1.80038 994.725 1145.59 
42 7.32 7.32 0 0.000960106 0.000960106 1.1204e-06 9.60106 3673.52 4310.06 
82 7.643 7.643 0 0.000944409 0.000944409 9.65049e-07 9.44409 3325.29 4000.63 
122 7.844 7.844 0 0.000948328 0.000948328 6.17704e-06 9.48328 3249.98 3917.58 
162 7.927 7.927 0 0.000951192 0.000951192 2.89944e-07 9.51192 3192.76 3869.5 
202 7.9944 7.9944 0 0.000960965 0.000960965 -1.03509e-06 9.60965 3249.83 3957.31 
242 7.7124 7.7124 0 0.000946432 0.000946432 2.0196e-06 9.46432 3314.81 3990.55 
282 7.5048 7.5048 0 0.000965407 0.000965407 1.91472e-08 9.65407 3631.71 4280.2 
322 0.5106 0.5106 0 7.42859e-05 7.42859e-05 -5.85214e-07 7.41334 3457.83 3981.61 
362 0.967 0.967 0 6.44538e-05 6.44538e-05 -7.60998e-07 0.908364 499.692 579.334 
402 0.9182 0.9182 0 6.13959e-05 6.13959e-05 -8.00967e-07 0.853181 481.289 557.624 
442 0.8614 0.8614 0 6.19437e-05 6.19437e-05 8.94963e-07 0.808512 473.26 549.14 
482 0.842 0.842 0 5.93893e-05 5.93893e-05 -7.39365e-07 0.794153 450.28 517.956 
522 0.825 0.825 0 6.11218e-05 6.11218e-05 1.1114e-06 0.766706 445.035 510.083 
562 0.7904 0.7904 0 5.88163e-05 5.88163e-05 -1.87697e-07 0.745501 441.608 501.941 
602 0.7396 0.7396 0 5.86444e-05 5.86444e-05 1.72274e-06 0.700474 428.66 484.816 
642 0.0066 0.0066 0 6.98488e-08 6.98488e-08 -7.69666e-08 0.0423699 20.817 25.6579 
682 0.0026 0.0026 0 -1.41258e-07 -1.41258e-07 -3.78941e-08 0.00141258 0.0724557 0.294476 
722 0.0026 0.0026 0 -1.36623e-07 -1.36623e-07 5.0236e-08 0.00136623 0.207524 0.783941 
762 0.0028 0.0028 0 -1.47878e-07 -1.47878e-07 -3.54724e-09 0.00147878 0.148992 0.24064 
802 0.0022 0.0022 0 -1.23244e-07 -1.23244e-07 4.89565e-09 0.00123244 0.0814332 0.0310908 
842 0.0016 0.0016 0 -8.44822e-08 -8.44822e-08 -1.53478e-08 0.000844822 0.0386627 0.358596 
882 0.0034 0.0034 0 -2.40342e-07 -2.40342e-07 -4.19491e-08 0.00240342 0.235336 0.518861 
922 0.0034 0.0034 0 -1.84344e-07 -1.84344e-07 -4.02862e-08 0.00184344 0.176197 0.533296 
962 0.0042 0.0042 0 4.3454e-08 4.3454e-08 5.45214e-08 0.0268972 11.4116 16.0709 
1002 0.7348 0.7348 0 5.64034e-05 5.64034e-05 6.46577e-07 0.686652 406.04 460.629 
1042 0.804 0.804 0 5.93253e-05 5.93253e-05 -9.64136e-07 0.756028 455.259 515.142 
1082 0.823 0.823 0 5.88028e-05 5.88028e-05 -2.31341e-07 0.768532 436.57 505.918 
1122 0.8418 0.8418 0 5.88917e-05 5.88917e-05 -5.24642e-07 0.780409 447.154 514.075 
1162 0.8726 0.8726 0 6.07836e-05 6.07836e-05 -6.09325e-07 0.810487 456.75 527.891 
1202 0.944 0.944 0 6.30158e-05 6.30158e-05 6.70554e-07 0.886003 477.251 553.213 
1242 0.9738 0.9738 0 6.54036e-05 6.54036e-05 -7.25284e-07 0.916417 501.092 593.004 
3 0.2016 0.2016 0 2.095e-05 2.095e-05 1.46743e-07 2.26154 1329 1515.37 
43 7.3278 7.3278 0 0.000958624 0.000958624 -1.13763e-07 9.58624 3645.46 4281.94 
83 7.7618 7.7618 0 0.000960989 0.000960989 -1.50741e-06 9.60989 3361.39 4043.03 
123 7.9454 7.9454 0 0.000961576 0.000961576 -3.4442e-06 9.61576 3282.46 3970.3 
163 7.9088 7.9088 0 0.000950009 0.000950009 7.51482e-07 9.50009 3174.23 3855.84 
203 7.9476 7.9476 0 0.000966361 0.000966361 1.50805e-06 9.66361 3310.15 4001.01 
243 7.7574 7.7574 0 0.000956689 0.000956689 -1.2617e-06 9.56689 3333.32 4007.56 
283 7.4342 7.4342 0 0.000958765 0.000958765 2.76397e-07 9.58765 3588.85 4249.35 
323 0.4784 0.4784 0 6.9775e-05 6.9775e-05 1.17972e-06 7.00746 3215.18 3649.9 
363 0.9646 0.9646 0 6.37341e-05 6.37341e-05 1.02217e-06 0.890141 483.695 572.066 
403 0.909 0.909 0 6.34465e-05 6.34465e-05 -7.71431e-07 0.85304 490.018 569.764 
443 0.884 0.884 0 6.02815e-05 6.02815e-05 -6.1925e-07 0.831117 459.204 534.588 
483 0.8392 0.8392 0 6.06955e-05 6.06955e-05 -1.00194e-06 0.78616 465.937 535.026 
523 0.8052 0.8052 0 5.93992e-05 5.93992e-05 -7.66783e-07 0.753116 440.635 503.579 
563 0.7654 0.7654 0 5.65417e-05 5.65417e-05 3.40669e-07 0.722874 417.535 480.83 
603 0.7274 0.7274 0 5.67755e-05 5.67755e-05 -1.01511e-06 0.686208 415.417 468.822 
643 0.0052 0.0052 0 -3.21807e-08 -3.21807e-08 9.99331e-08 0.0300575 9.05215 10.5159 
683 0.003 0.003 0 -1.76168e-07 -1.76168e-07 -4.30397e-08 0.00176168 0.0260543 0.219811 
723 0.0026 0.0026 0 -1.56365e-07 -1.56365e-07 -1.2106e-08 0.00156365 0.363181 0.442736 
763 0.0026 0.0026 0 -1.327e-07 -1.327e-07 -2.159e-08 0.001327 0.0846454 0.322076 
803 0.0036 0.0036 0 -2.27893e-07 -2.27893e-07 6.01959e-08 0.00227893 0.126206 0.266664 
843 0.0034 0.0034 0 -1.53809e-07 -1.53809e-07 1.61107e-08 0.00153809 0.282785 0.418173 
883 0.002 0.002 0 -1.34727e-07 -1.34727e-07 2.40312e-08 0.00134727 0.202267 0.207551 
923 0.0034 0.0034 0 -2.13912e-07 -2.13912e-07 3.68088e-08 0.00213912 -0.119291 0.330504 
963 0.0078 0.0078 0 9.39146e-08 9.39146e-08 -4.82471e-09 0.0573156 30.1496 32.4601 
1003 0.7546 0.7546 0 5.93257e-05 5.93257e-05 -6.54738e-07 0.714598 442.795 502.777 
1043 0.768 0.768 0 5.83093e-05 5.83093e-05 8.47245e-08 0.731882 434.131 503.172 
1083 0.8234 0.8234 0 5.96865e-05 5.96865e-05 5.38077e-08 0.779284 450.542 517.735 
1123 0.8584 0.8584 0 6.09354e-05 6.09354e-05 -1.97621e-06 0.809289 468.84 538.778 
1163 0.8942 0.8942 0 6.12389e-05 6.12389e-05 -8.27831e-07 0.846469 466.627 540.628 
1203 0.8992 0.8992 0 6.09937e-05 6.09937e-05 -1.46284e-07 0.841068 471.969 549.767 
1243 0.953 0.953 0 6.21258e-05 6.21258e-05 -1.24843e-06 0.893529 486.875 570.684 
4 0.2448 0.2448 0 2.73909e-05 2.73909e-05 -1.0196e-07 2.88859 1647.51 1877.48 
44 7.384 7.384 0 0.000961274 0.000961274 -3.57822e-07 9.61274 3647.69 4308.07 
84 7.7682 7.7682 0 0.000958235 0.000958235 8.5151e-07 9.58235 3366.82 4039.74 
124 7.852 7.852 0 0.000954023 0.000954023 -6.91464e-07 9.54023 3231.66 3903.4 
164 7.9226 7.9226 0 0.000956785 0.000956785 -1.10366e-06 9.56785 3198.5 3879.46 
204 7.8224 7.8224 0 0.000945809 0.000945809 2.08304e-06 9.45809 3198.21 3885.99 
244 7.8002 7.8002 0 0.000963336 0.000963336 1.13536e-06 9.63336 3369.67 4048.09 
284 7.434 7.434 0 0.000961094 0.000961094 -1.58261e-06 9.61094 3602.47 4259.76 
324 0.4236 0.4236 0 5.92871e-05 5.92871e-05 1.36491e-07 5.89919 2860.76 3248.36 
364 0.9486 0.9486 0 6.17305e-05 6.17305e-05 7.6168e-07 0.892324 479.016 569.706 
404 0.9196 0.9196 0 6.29914e-05 6.29914e-05 -3.39097e-07 0.867088 481.979 563.346 
444 0.8692 0.8692 0 6.09327e-05 6.09327e-05 3.05284e-07 0.823694 474.937 544.75 
484 0.8606 0.8606 0 6.0797e-05 6.0797e-05 2.55958e-07 0.814206 447.571 514.825 
524 0.821 0.821 0 5.94484e-05 5.94484e-05 -1.70562e-07 0.776108 443.767 508.037 
564 0.7684 0.7684 0 5.66664e-05 5.66664e-05 7.16234e-07 0.722917 411.156 469.505 
604 0.7498 0.7498 0 5.76283e-05 5.76283e-05 3.4799e-07 0.702305 418.872 481.949 
644 0.0032 0.0032 0 -7.65634e-08 -7.65634e-08 4.24004e-08 0.0217219 2.036 4.19345 
684 0.0036 0.0036 0 -2.03064e-07 -2.03064e-07 -6.77097e-08 0.00203064 0.675887 1.11504 
724 0.0022 0.0022 0 -1.39119e-07 -1.39119e-07 5.6493e-08 0.00139119 0.025692 0.202321 
764 0.0026 0.0026 0 -1.38166e-07 -1.38166e-07 -3.463e-08 0.00138166 -0.018449 -0.00143362 
804 0.002 0.002 0 -1.0886e-07 -1.0886e-07 -1.29146e-08 0.0010886 -0.0245448 0.0452294 
844 0.0028 0.0028 0 -1.43282e-07 -1.43282e-07 -4.13289e-08 0.00143282 0.073687 0.0388767 
884 0.0028 0.0028 0 -1.56471e-07 -1.56471e-07 6.72421e-09 0.00156471 0.315539 0.72535 
924 0.0034 0.0034 0 -2.05239e-07 -2.05239e-07 5.17263e-08 0.00205239 0.300452 0.731771 
964 0.0108 0.0108 0 2.25391e-07 2.25391e-07 -2.16955e-08 0.0746849 29.8536 37.9756 
1004 0.7422 0.7422 0 5.80697e-05 5.80697e-05 -5.6089e-07 0.704455 425.055 485.548 
1044 0.7742 0.7742 0 5.7145e-05 5.7145e-05 4.33117e-07 0.723963 422.036 480.518 
1084 0.821 0.821 0 5.93103e-05 5.93103e-05 5.34076e-07 0.770248 435.523 500.409 
1124 0.8382 0.8382 0 6.05794e-05 6.05794e-05 -1.61673e-08 0.794302 454.38 528.368 
1164 0.8764 0.8764 0 5.98478e-05 5.98478e-05 -4.66361e-07 0.818257 456.887 530.715 
1204 0.9298 0.9298 0 6.19846e-05 6.19846e-05 -1.0287e-07 0.879838 481.279 564.417 
1244 0.9612 0.9612 0 6.17732e-05 6.17732e-05 7.48296e-08 0.886505 484.922 576.31 
5 0.2824 0.2824 0 3.35533e-05 3.35533e-05 -2.57861e-07 3.51104 1938.52 2159.43 
45 7.3802 7.3802 0 0.000960753 0.000960753 3.53998e-06 9.60753 3677.08 4346.71 
85 7.648 7.648 0 0.000949233 0.000949233 6.5915e-07 9.49233 3311.68 3995.24 
125 7.935 7.935 0 0.000961261 0.000961261 -1.5264e-06 9.61261 3273.37 3972.72 
165 7.8972 7.8972 0 0.000950687 0.000950687 3.11489e-06 9.50687 3175.63 3877.97 
205 7.9154 7.9154 0 0.000956073 0.000956073 -5.6614e-07 9.56073 3261.91 3953.06 
245 7.7804 7.7804 0 0.000956421 0.000956421 1.92774e-06 9.56421 3336.53 4034.86 
285 7.4206 7.4206 0 0.000959227 0.000959227 -2.17871e-06 9.59227 3596.09 4268.65 
325 0.389 0.389 0 5.30821e-05 5.30821e-05 -1.66244e-07 5.27259 2705.11 3088.6 
365 0.9662 0.9662 0 6.43119e-05 6.43119e-05 -1.58809e-07 0.904335 495.203 579.67 
405 0.8994 0.8994 0 6.24915e-05 6.24915e-05 -1.45664e-08 0.84355 482.645 560.484 
445 0.8702 0.8702 0 6.17014e-05 6.17014e-05 -1.55669e-07 0.821404 461.861 532.755 
485 0.8482 0.8482 0 6.01006e-05 6.01006e-05 5.0866e-07 0.797686 457.888 528.6 
525 0.8294 0.8294 0 5.93718e-05 5.93718e-05 -8.68187e-08 0.773861 437.196 509.476 
565 0.7736 0.7736 0 5.76583e-05 5.76583e-05 -2.41629e-07 0.727137 428.091 485.735 
605 0.7386 0.7386 0 5.78737e-05 5.78737e-05 4.09244e-07 0.697111 426.066 483.889 
645 0.0028 0.0028 0 -5.41287e-08 -5.41287e-08 7.8705e-08 0.0157587 0.586157 2.28061 
685 0.0012 0.0012 0 -4.52126e-08 -4.52126e-08 2.00308e-09 0.000452126 -0.117347 0.0199143 
725 0.0032 0.0032 0 -1.57339e-07 -1.57339e-07 -3.81306e-10 0.00157339 0.431313 0.448808 
765 0.0028 0.0028 0 -1.97566e-07 -1.97566e-07 6.07785e-08 0.00197566 -0.140966 -0.0941517 
805 0.0032 0.0032 0 -1.88106e-07 -1.88106e-07 4.76772e-09 0.00188106 0.292518 0.474288 
845 0.0026 0.0026 0 -1.2284e-07 -1.2284e-07 -1.0467e-08 0.0012284 0.565177 0.524212 
885 0.0038 0.0038 0 -2.30776e-07 -2.30776e-07 1.66739e-08 0.00230776 0.296123 0.589352 
925 0.003 0.003 0 -1.7255e-07 -1.7255e-07 -3.76868e-08 0.0017255 0.218074 0.360535 
965 0.014 0.014 0 5.57777e-07 5.57777e-07 -6.21142e-08 0.10609 52.9916 67.0438 
1005 0.7506 0.7506 0 5.82079e-05 5.82079e-05 -1.19754e-06 0.703015 433.64 492.393 
1045 0.7808 0.7808 0 5.92916e-05 5.92916e-05 -4.9047e-07 0.737947 443.625 504.075 
1085 0.8264 0.8264 0 6.08931e-05 6.08931e-05 4.89812e-07 0.766767 455.706 517.951 
1125 0.8672 0.8672 0 6.18537e-05 6.18537e-05 -1.1988e-07 0.814136 464.97 538.966 
1165 0.8844 0.8844 0 6.04708e-05 6.04708e-05 -1.07044e-06 0.839447 466.823 533.183 
1205 0.9368 0.9368 0 6.4694e-05 6.4694e-05 7.22016e-07 0.87502 492.536 565.67 
1245 0.9628 0.9628 0 6.25759e-05 6.25759e-05 -1.14375e-06 0.90551 483.645 571.402 
6 0.3104 0.3104 0 3.90163e-05 3.90163e-05 3.70888e-08 4.02659 2076.2 2356.18 
46 7.4058 7.4058 0 0.00096446 0.00096446 4.16246e-07 9.6446 3610.2 4264.84 
86 7.7154 7.7154 0 0.000951016 0.000951016 4.95403e-07 9.51016 3331.59 4016.86 
126 7.8936 7.8936 0 0.00095773 0.00095773 -1.00081e-06 9.5773 3253.71 3937.71 
166 7.967 7.967 0 0.000954132 0.000954132 -1.25408e-07 9.54132 3195.62 3890.13 
206 7.8796 7.8796 0 0.000948316 0.000948316 -2.89311e-07 9.48316 3215.56 3889.18 
246 7.7036 7.7036 0 0.000949136 0.000949136 9.79159e-07 9.49136 3324.8 4006.37 
286 7.328 7.328 0 0.000952398 0.000952398 1.76782e-06 9.52398 3582.88 4230.88 
326 0.3488 0.3488 0 4.49219e-05 4.49219e-05 6.97868e-07 4.55306 2348.85 2672.36 
366 0.9392 0.9392 0 6.36018e-05 6.36018e-05 1.02591e-06 0.877859 488.445 573.084 
406 0.909 0.909 0 6.10927e-05 6.10927e-05 -1.73868e-07 0.864862 463.365 539.56 
446 0.8884 0.8884 0 6.30149e-05 6.30149e-05 -6.22832e-07 0.833673 472.328 546.931 
486 0.8316 0.8316 0 6.01612e-05 6.01612e-05 -8.03104e-07 0.783909 452.859 520.842 
526 0.8026 0.8026 0 5.91311e-05 5.91311e-05 -5.49797e-09 0.749968 447.808 512.153 
566 0.778 0.778 0 5.75565e-05 5.75565e-05 -3.07705e-07 0.725943 421.011 483.773 
606 0.7172 0.7172 0 5.531e-05 5.531e-05 5.74994e-07 0.669001 401.996 461.594 
646 0.0016 0.0016 0 -3.72292e-08 -3.72292e-08 3.50153e-08 0.00927056 3.51681 4.58841 
686 0.0042 0.0042 0 -2.32248e-07 -2.32248e-07 -8.95391e-08 0.00232248 0.157444 0.309149 
726 0.0024 0.0024 0 -1.55161e-07 -1.55161e-07 2.49436e-08 0.00155161 0.126465 0.0780936 
766 0.0028 0.0028 0 -1.83324e-07 -1.83324e-07 5.07312e-08 0.00183324 0.267398 0.43147 
806 0.0038 0.0038 0 -2.07223e-07 -2.07223e-07 3.65659e-08 0.00207223 0.169402 0.621021 
846 0.0026 0.0026 0 -1.37585e-07 -1.37585e-07 -6.19817e-09 0.00137585 0.11296 0.389395 
886 0.0032 0.0032 0 -2.02667e-07 -2.02667e-07 9.11127e-08 0.00202667 0.0930096 0.357057 
926 0.0046 0.0046 0 -2.62818e-07 -2.62818e-07 -7.64182e-08 0.00262818 0.286996 0.822481 
966 0.0252 0.0252 0 1.11783e-06 1.11783e-06 5.01524e-08 0.183272 113.141 140.148 
1006 0.7466 0.7466 0 5.90113e-05 5.90113e-05 7.32822e-08 0.691124 429.901 491.646 
1046 0.7912 0.7912 0 5.84355e-05 5.84355e-05 -2.58564e-07 0.740419 429.835 495.442 
1086 0.8356 0.8356 0 6.07559e-05 6.07559e-05 9.91526e-08 0.776292 460.13 525.721 
1126 0.8188 0.8188 0 5.86722e-05 5.86722e-05 -2.24457e-08 0.771261 444.869 512.21 
1166 0.8982 0.8982 0 6.31176e-05 6.31176e-05 1.04521e-06 0.837128 477.582 547.177 
1206 0.9192 0.9192 0 6.28683e-05 6.28683e-05 -9.49247e-08 0.864686 486.525 573.714 
1246 0.9544 0.9544 0 6.18838e-05 6.18838e-05 -4.24664e-07 0.885747 469.948 560.094 
7 0.3662 0.3662 0 4.85908e-05 4.85908e-05 -2.77813e-07 4.8637 2575.33 2909.11 
47 7.3788 7.3788 0 0.000956709 0.000956709 -1.42213e-06 9.56709 3597.1 4239.14 
87 7.75 7.75 0 0.000957811 0.000957811 -4.79769e-06 9.57811 3379.39 4051.52 
127 7.9412 7.9412 0 0.000962915 0.000962915 -3.8622e-07 9.62915 3216.13 3907.61 
167 7.9294 7.9294 0 0.000950724 0.000950724 -5.08718e-06 9.50724 3195.14 3881.71 
207 7.9054 7.9054 0 0.000958195 0.000958195 -4.49011e-07 9.58195 3278.18 3984.94 
247 7.7328 7.7328 0 0.000948481 0.000948481 -2.86872e-07 9.48481 3321.57 3994.3 
287 7.3516 7.3516 0 0.000955798 0.000955798 1.29238e-06 9.55798 3621.63 4268.72 
327 0.3 0.3 0 3.74913e-05 3.74913e-05 4.15899e-07 3.85406 1988.98 2270.12 
367 0.943 0.943 0 6.09593e-05 6.09593e-05 1.02912e-06 0.879292 470.356 560.881 
407 0.906 0.906 0 6.22919e-05 6.22919e-05 -4.69282e-07 0.8542 478.06 556.588 
447 0.882 0.882 0 5.95546e-05 5.95546e-05 -6.21419e-07 0.828587 453.917 528.366 
487 0.827 0.827 0 5.84714e-05 5.84714e-05 3.66088e-07 0.778595 435.248 502.883 
527 0.8262 0.8262 0 5.95493e-05 5.95493e-05 -6.12813e-07 0.785782 446.407 510.64 
567 0.7914 0.7914 0 5.80615e-05 5.80615e-05 5.70989e-07 0.742318 424.381 489.057 
607 0.7378 0.7378 0 5.80921e-05 5.80921e-05 2.87654e-07 0.691365 429.616 488.788 
647 0.001 0.001 0 -5.49407e-08 -5.49407e-08 4.57862e-08 0.00825066 2.03134 4.74681 
687 0.003 0.003 0 -1.74225e-07 -1.74225e-07 9.63654e-09 0.00174225 -0.0344413 0.553118 
727 0.0026 0.0026 0 -1.53293e-07 -1.53293e-07 2.68952e-08 0.00153293 0.390796 0.637619 
767 0.0028 0.0028 0 -1.40653e-07 -1.40653e-07 8.94676e-08 0.00140653 0.389184 0.606186 
807 0.0022 0.0022 0 -1.2918e-07 -1.2918e-07 -1.07965e-08 0.0012918 0.0814207 0.0851001 
847 0.0026 0.0026 0 -1.54409e-07 -1.54409e-07 -1.9451e-09 0.00154409 0.219872 0.341504 
887 0.003 0.003 0 -1.93029e-07 -1.93029e-07 1.74808e-08 0.00193029 0.295896 0.377607 
927 0.0038 0.0038 0 -2.17421e-07 -2.17421e-07 4.19256e-08 0.00217421 0.039941 0.424394 
967 0.0298 0.0298 0 1.52906e-06 1.52906e-06 -6.81989e-08 0.241711 133.609 161.557 
1007 0.7442 0.7442 0 5.73162e-05 5.73162e-05 3.72248e-07 0.697082 414.865 476.107 
1047 0.7946 0.7946 0 6.05498e-05 6.05498e-05 1.79978e-06 0.760951 451.419 510.226 
1087 0.8202 0.8202 0 5.98056e-05 5.98056e-05 -1.40129e-06 0.764759 443.255 504.431 
1127 0.8526 0.8526 0 6.0159e-05 6.0159e-05 1.45181e-08 0.799154 454.997 526.192 
1167 0.8888 0.8888 0 6.20806e-05 6.20806e-05 -1.36485e-06 0.833924 470.343 544.932 
1207 0.9244 0.9244 0 6.23314e-05 6.23314e-05 -6.11521e-08 0.864276 473.101 554.298 
1247 0.9682 0.9682 0 6.32121e-05 6.32121e-05 1.35842e-07 0.90492 494.628 576.014 
8 0.3878 0.3878 0 5.31574e-05 5.31574e-05 -3.64932e-07 5.33125 2742.41 3097.56 
48 7.3784 7.3784 0 0.000961532 0.000961532 -1.75594e-06 9.61532 3616.11 4272.86 
88 7.7708 7.7708 0 0.000960238 0.000960238 -1.81258e-06 9.60238 3369.09 4054.81 
128 7.8352 7.8352 0 0.000943469 0.000943469 -1.28039e-06 9.43469 3194.84 3883.01 
168 7.8732 7.8732 0 0.000943963 0.000943963 1.21945e-06 9.43963 3172.56 3858.27 
208 7.8704 7.8704 0 0.000952945 0.000952945 -5.11153e-07 9.52945 3215.53 3892.09 
248 7.7132 7.7132 0 0.000954328 0.000954328 2.04029e-06 9.54328 3346.31 4016.22 
288 7.3278 7.3278 0 0.000953935 0.000953935 -1.54143e-06 9.53935 3648.73 4302.31 
328 0.2802 0.2802 0 3.25114e-05 3.25114e-05 6.73967e-07 3.46274 1763.38 1987.51 
368 0.9478 0.9478 0 6.37895e-05 6.37895e-05 7.17728e-07 0.893604 495.822 584.848 
408 0.915 0.915 0 6.46521e-05 6.46521e-05 2.01132e-07 0.858253 498.124 577.085 
448 0.8924 0.8924 0 6.08183e-05 6.08183e-05 3.23533e-07 0.839844 459.779 536.437 
488 0.8562 0.8562 0 5.99812e-05 5.99812e-05 3.63346e-07 0.797689 455.603 524.73 
528 0.818 0.818 0 5.77716e-05 5.77716e-05 5.4417e-07 0.767374 423.909 485.62 
568 0.796 0.796 0 6.00299e-05 6.00299e-05 -3.10486e-07 0.738891 446.656 513.498 
608 0.749 0.749 0 5.93589e-05 5.93589e-05 2.8245e-07 0.707963 439.106 496.672 
648 0.0008 0.0008 0 -1.90613e-08 -1.90613e-08 -3.52245e-08 0.0031711 0.8159 1.53633 
688 0.0044 0.0044 0 -2.91436e-07 -2.91436e-07 9.06765e-08 0.00291436 0.296306 0.554242 
728 0.0026 0.0026 0 -1.66953e-07 -1.66953e-07 1.70075e-08 0.00166953 -0.105583 -0.0230753 
768 0.0028 0.0028 0 -1.5998e-07 -1.5998e-07 -2.59653e-08 0.0015998 0.172796 0.24611 
808 0.0026 0.0026 0 -1.305e-07 -1.305e-07 2.18389e-08 0.001305 -0.0105136 0.114768 
848 0.0016 0.0016 0 -1.01925e-07 -1.01925e-07 1.60802e-08 0.00101925 0.171075 0.0935612 
888 0.0024 0.0024 0 -1.366e-07 -1.366e-07 4.7002e-08 0.001366 0.113209 0.378549 
928 0.0026 0.0026 0 -1.69748e-07 -1.69748e-07 5.27241e-08 0.00169748 0.209276 0.672041 
968 0.0482 0.0482 0 2.85078e-06 2.85078e-06 -6.01625e-08 0.425333 233.365 256.539 
1008 0.7382 0.7382 0 5.54666e-05 5.54666e-05 6.78872e-07 0.699725 414.665 476.122 
1048 0.79 0.79 0 5.74582e-05 5.74582e-05 4.48885e-07 0.747584 434.828 500.387 
1088 0.8348 0.8348 0 5.98968e-05 5.98968e-05 3.52317e-07 0.786757 445.809 517.251 
1128 0.84 0.84 0 5.92645e-05 5.92645e-05 8.72353e-07 0.790719 451.757 517.213 
1168 0.8576 0.8576 0 5.94116e-05 5.94116e-05 -1.4154e-07 0.808798 449.937 521.436 
1208 0.9226 0.9226 0 6.06143e-05 6.06143e-05 1.77026e-07 0.866812 461.741 545.952 
1248 0.9602 0.9602 0 6.1812e-05 6.1812e-05 -4.00884e-07 0.903272 473.548 560.932 
9 0.4296 0.4296 0 6.11021e-05 6.11021e-05 -8.30797e-08 6.13251 2905.1 3331.28 
49 7.4468 7.4468 0 0.00096181 0.00096181 -8.25484e-07 9.6181 3605.75 4258.71 
89 7.75 7.75 0 0.00095199 0.00095199 2.58244e-06 9.5199 3365.13 4040.01 
129 7.9614 7.9614 0 0.000961932 0.000961932 -2.40842e-06 9.61932 3288.39 3996.54 
169 7.9026 7.9026 0 0.000954004 0.000954004 3.50851e-06 9.54004 3246.52 3936.47 
209 7.8322 7.8322 0 0.000943023 0.000943023 1.07209e-06 9.43023 3208.67 3883.11 
249 7.7626 7.7626 0 0.000962782 0.000962782 -6.86292e-07 9.62782 3416.99 4103.18 
289 7.3072 7.3072 0 0.000955357 0.000955357 -1.36535e-06 9.55357 3646.81 4282.61 
329 0.231 0.231 0 2.52837e-05 2.52837e-05 -3.29448e-07 2.67597 1480.22 1659.96 
369 0.9584 0.9584 0 6.36982e-05 6.36982e-05 -1.05347e-06 0.899432 502.56 586.179 
409 0.8812 0.8812 0 6.03696e-05 6.03696e-05 3.6896e-07 0.829124 452.175 528.029 
449 0.8804 0.8804 0 6.28543e-05 6.28543e-05 -3.07461e-07 0.829095 470.555 541.388 
489 0.8404 0.8404 0 5.92835e-05 5.92835e-05 -1.31035e-06 0.784212 450.174 521.526 
529 0.8 0.8 0 5.70962e-05 5.70962e-05 -1.15404e-07 0.748836 422.466 487.494 
569 0.789 0.789 0 6.00631e-05 6.00631e-05 -1.99704e-07 0.741032 444.623 501.505 
609 0.7442 0.7442 0 5.80608e-05 5.80608e-05 -2.36347e-07 0.702434 419.506 475.678 
649 0.0006 0.0006 0 -1.884e-08 -1.884e-08 3.76788e-08 0.00213203 1.49078 1.513 
689 0.0028 0.0028 0 -1.36173e-07 -1.36173e-07 -6.95204e-09 0.00136173 0.365177 0.559619 
729 0.0022 0.0022 0 -1.22098e-07 -1.22098e-07 5.68931e-10 0.00122098 -0.0650114 0.314177 
769 0.0038 0.0038 0 -2.03962e-07 -2.03962e-07 1.7202e-08 0.00203962 0.321086 0.4866 
809 0.0014 0.0014 0 -6.97984e-08 -6.97984e-08 3.99974e-09 0.000697984 -0.0328209 0.0782343 
849 0.0028 0.0028 0 -1.71063e-07 -1.71063e-07 4.26823e-08 0.00171063 0.225329 0.591757 
889 0.0022 0.0022 0 -1.11221e-07 -1.11221e-07 9.40129e-09 0.00111221 0.0185724 0.48119 
929 0.0036 0.0036 0 -1.85987e-07 -1.85987e-07 9.33181e-08 0.00185987 0.0945892 0.357503 
969 0.0626 0.0626 0 5.00729e-06 5.00729e-06 3.08553e-07 0.569364 395.007 456.112 
1009 0.7394 0.7394 0 5.61015e-05 5.61015e-05 5.62925e-07 0.694793 415.44 475.087 
1049 0.7968 0.7968 0 5.91004e-05 5.91004e-05 -4.76336e-07 0.741684 435.366 496.311 
1089 0.8216 0.8216 0 5.95278e-05 5.95278e-05 3.15645e-07 0.776381 443.346 514.549 
1129 0.8534 0.8534 0 5.89096e-05 5.89096e-05 2.06448e-07 0.796398 445.205 517.69 
1169 0.8704 0.8704 0 5.8853e-05 5.8853e-05 -7.67473e-07 0.822354 456.474 528.682 
1209 0.9144 0.9144 0 6.13002e-05 6.13002e-05 7.17617e-07 0.852918 475.321 547.495 
1249 0.9746 0.9746 0 6.2848e-05 6.2848e-05 7.57676e-07 0.90535 488.827 581.741 
10 0.4748 0.4748 0 6.77538e-05 6.77538e-05 -8.69244e-07 6.7314 3246.54 3698.09 
50 7.4114 7.4114 0 0.000954092 0.000954092 -1.55584e-06 9.54092 3602.99 4261.01 
90 7.7886 7.7886 0 0.000959539 0.000959539 7.46692e-07 9.59539 3348.13 4042.08 
130 7.9236 7.9236 0 0.000960434 0.000960434 -2.24052e-06 9.60434 3257.67 3951.96 
170 7.9158 7.9158 0 0.000953603 0.000953603 -1.83397e-06 9.53603 3209.3 3886.82 
210 7.864 7.864 0 0.00094746 0.00094746 1.68826e-06 9.4746 3209.18 3895.07 
250 7.7084 7.7084 0 0.000954617 0.000954617 1.83875e-06 9.54617 3392.95 4070.71 
290 7.2892 7.2892 0 0.000953189 0.000953189 -4.72575e-06 9.53189 3602.96 4249.2 
330 0.194 0.194 0 1.95177e-05 1.95177e-05 -1.86226e-07 2.187 1188.84 1332.25 
370 0.946 0.946 0 6.16673e-05 6.16673e-05 -3.77151e-07 0.880955 479.898 567.29 
410 0.9098 0.9098 0 6.20718e-05 6.20718e-05 4.50929e-07 0.857992 479.15 555.222 
450 0.8556 0.8556 0 5.90314e-05 5.90314e-05 -4.26385e-07 0.806554 447.882 519.529 
490 0.8452 0.8452 0 5.98209e-05 5.98209e-05 7.7779e-07 0.787796 450.799 521.881 
530 0.8024 0.8024 0 5.78714e-05 5.78714e-05 -5.5457e-07 0.751066 439.441 507.552 
570 0.7792 0.7792 0 5.73901e-05 5.73901e-05 -1.22027e-06 0.731557 422.495 482.419 
610 0.7424 0.7424 0 5.77504e-05 5.77504e-05 -3.09414e-07 0.695369 424.508 482.005 
650 0.0002 0.0002 0 -5.36143e-09 -5.36143e-09 2.19223e-08 0.000590373 0.694266 3.92334 
690 0.0042 0.0042 0 -2.63311e-07 -2.63311e-07 -5.13913e-08 0.00263311 -0.00296662 0.494894 
730 0.0038 0.0038 0 -2.25433e-07 -2.25433e-07 -3.01601e-08 0.00225433 0.0974519 0.634339 
770 0.0036 0.0036 0 -2.39673e-07 -2.39673e-07 6.23166e-08 0.00239673 0.454823 0.844931 
810 0.0028 0.0028 0 -1.60921e-07 -1.60921e-07 -5.43023e-09 0.00160921 0.358831 0.450525 
850 0.0018 0.0018 0 -1.11986e-07 -1.11986e-07 2.26684e-08 0.00111986 0.114749 0.443244 
890 0.0028 0.0028 0 -1.49359e-07 -1.49359e-07 2.21274e-08 0.00149359 0.366404 0.395634 
930 0.0042 0.0042 0 -2.63182e-07 -2.63182e-07 -1.50302e-08 0.00263182 0.276749 0.461396 
970 0.1656 0.1656 0 1.30737e-05 1.30737e-05 -8.35767e-08 0.631137 384.54 432.026 
1010 0.7252 0.7252 0 5.61548e-05 5.61548e-05 3.81573e-07 0.670569 418.374 477.137 
1050 0.7978 0.7978 0 5.96561e-05 5.96561e-05 -1.37864e-06 0.752728 441.999 508.935 
1090 0.8328 0.8328 0 6.01108e-05 6.01108e-05 1.5605e-07 0.789137 446.513 512.166 
1130 0.8558 0.8558 0 5.95936e-05 5.95936e-05 5.68327e-07 0.802069 449.516 519.054 
1170 0.8748 0.8748 0 6.04455e-05 6.04455e-05 1.97386e-06 0.816995 451.025 522.793 
1210 0.923 0.923 0 6.45115e-05 6.45115e-05 -1.34977e-06 0.866321 491.402 566.565 
1250 0.9646 0.9646 0 6.31723e-05 6.31723e-05 -6.02473e-07 0.910117 495.241 584.952 
11 0.5338 0.5338 0 7.78795e-05 7.78795e-05 2.93534e-07 7.71999 3597.74 4076.95 
51 7.4022 7.4022 0 0.000952495 0.000952495 5.14522e-07 9.52495 3562 4219.89 
91 7.772 7.772 0 0.000959712 0.000959712 7.68922e-07 9.59712 3348.84 4023.5 
131 7.9088 7.9088 0 0.000957408 0.000957408 2.49125e-06 9.57408 3259.79 3959.81 
171 7.9454 7.9454 0 0.000951956 0.000951956 -2.99918e-06 9.51956 3203.87 3900.43 
211 7.9192 7.9192 0 0.000962005 0.000962005 1.11329e-06 9.62005 3280.67 3975.65 
251 7.658 7.658 0 0.000948696 0.000948696 -3.4809e-06 9.48696 3341.64 4007.66 
291 7.284 7.284 0 0.000956727 0.000956727 -1.49367e-06 9.56727 3650.72 4290.58 
331 0.18 0.18 0 1.6005e-05 1.6005e-05 3.95154e-07 1.91704 1077.08 1228.85 
371 0.947 0.947 0 6.47577e-05 6.47577e-05 4.09763e-08 0.891761 497.894 586.22 
411 0.9212 0.9212 0 6.23252e-05 6.23252e-05 -9.6519e-07 0.861056 482.25 560.368 
451 0.8618 0.8618 0 6.02735e-05 6.02735e-05 -8.60449e-07 0.810375 453.779 533.227 
491 0.8446 0.8446 0 5.91984e-05 5.91984e-05 2.83103e-07 0.794991 452.694 520.015 
531 0.8146 0.8146 0 5.915e-05 5.915e-05 7.43748e-07 0.760723 441.617 506.825 
571 0.78 0.78 0 5.9524e-05 5.9524e-05 -1.55269e-07 0.736903 438.613 494.724 
611 0.7202 0.7202 0 5.68478e-05 5.68478e-05 5.5221e-07 0.670985 417.61 474.901 
651 0.0006 0.0006 0 -4.05802e-08 -4.05802e-08 -2.73998e-09 0.00425759 0.66133 0.798427 
691 0.0016 0.0016 0 -1.01249e-07 -1.01249e-07 3.65188e-08 0.00101249 -0.135729 0.0906662 
731 0.0018 0.0018 0 -9.99229e-08 -9.99229e-08 2.33901e-08 0.000999229 0.546234 0.885639 
771 0.0028 0.0028 0 -1.58978e-07 -1.58978e-07 -1.33674e-08 0.00158978 0.320341 0.659618 
811 0.0028 0.0028 0 -1.94718e-07 -1.94718e-07 -1.61038e-08 0.00194718 0.462866 1.00737 
851 0.0026 0.0026 0 -1.47425e-07 -1.47425e-07 8.29272e-09 0.00147425 -0.0167001 0.306844 
891 0.0022 0.0022 0 -1.16914e-07 -1.16914e-07 -5.57004e-09 0.00116914 0.344606 0.442666 
931 0.002 0.002 0 -1.00319e-07 -1.00319e-07 1.80577e-08 0.00100319 0.19184 0.286669 
971 0.1704 0.1704 0 1.39885e-05 1.39885e-05 -3.49324e-08 0.649423 403.107 455.876 
1011 0.7538 0.7538 0 5.73196e-05 5.73196e-05 -1.41211e-07 0.710369 420.694 475.119 
1051 0.7906 0.7906 0 5.73133e-05 5.73133e-05 -5.69111e-07 0.741374 421.613 487.006 
1091 0.8264 0.8264 0 6.01505e-05 6.01505e-05 2.79914e-07 0.772973 452.183 518.275 
1131 0.8624 0.8624 0 6.27898e-05 6.27898e-05 2.97303e-07 0.814503 472.741 543.448 
1171 0.9052 0.9052 0 6.41534e-05 6.41534e-05 4.30378e-07 0.835897 490.325 564.973 
1211 0.9126 0.9126 0 6.11969e-05 6.11969e-05 -1.0148e-07 0.865004 472.95 550.616 
1251 0.9848 0.9848 0 6.29817e-05 6.29817e-05 -4.80986e-07 0.921179 504.068 594.97 
12 0.5442 0.5442 0 8.09617e-05 8.09617e-05 -8.96026e-07 8.01875 3716.11 4243.29 
52 7.4516 7.4516 0 0.000955629 0.000955629 1.32508e-06 9.55629 3561.44 4213.76 
92 7.8202 7.8202 0 0.000966095 0.000966095 -6.42284e-07 9.66095 3359.62 4031.08 
132 7.9158 7.9158 0 0.000955427 0.000955427 4.03755e-06 9.55427 3243.27 3919.25 
172 7.9748 7.9748 0 0.000961902 0.000961902 -1.66023e-06 9.61902 3224.98 3916.21 
212 7.864 7.864 0 0.000956158 0.000956158 1.37508e-06 9.56158 3265.46 3947.4 
252 7.6156 7.6156 0 0.000941994 0.000941994 1.58211e-06 9.41994 3294.47 3974.7 
292 7.3218 7.3218 0 0.000964442 0.000964442 6.75253e-07 9.64442 3698.2 4353.29 