ITEM: TIMESTEP
20000
ITEM: NUMBER OF SURFS
1272
ITEM: BOX BOUNDS oo rr pp
0 0.3
0 0.3
-0.5 0.5
ITEM: SURFS id f_4[1] f_4[2] f_4[3] f_4[4] f_4[5] f_4[6] f_4[7] f_4[8] f_4[9] 
1 0.123 0.123 0 5.90483e-06 5.90483e-06 2.41729e-08 0.617497 434.657 466.627 
41 6.6534 6.6534 0 0.000516154 0.000516154 3.2382e-07 5.16154 2299.83 2521.31 
81 6.822 6.822 0 0.00050663 0.00050663 1.01653e-06 5.0663 2146.19 2371.41 
121 6.9234 6.9234 0 0.000500832 0.000500832 -7.91561e-07 5.00832 2100.75 2344.19 
161 6.9678 6.9678 0 0.000499895 0.000499895 -2.03738e-06 4.99895 2088.53 2333.99 
201 6.9542 6.9542 0 0.000502599 0.000502599 -6.85274e-07 5.02599 2096.43 2339.14 
241 6.8236 6.8236 0 0.000502913 0.000502913 -2.5161e-06 5.02913 2147.52 2374.7 
281 6.6634 6.6634 0 0.000511265 0.000511265 -1.01027e-06 5.11265 2236.37 2460.02 
321 0.5316 0.5316 0 4.456e-05 4.456e-05 -3.69196e-07 4.47678 2211.47 2385.61 
361 0.8416 0.8416 0 3.28978e-05 3.28978e-05 1.99862e-07 0.390835 269.358 299.241 
401 0.803 0.803 0 3.26438e-05 3.26438e-05 -5.87064e-07 0.372933 257.026 285.553 
441 0.7618 0.7618 0 3.11021e-05 3.11021e-05 2.35136e-07 0.358313 247.183 271.621 
481 0.7728 0.7728 0 3.30841e-05 3.30841e-05 -1.5578e-08 0.361846 259.682 282.139 
521 0.7416 0.7416 0 3.19632e-05 3.19632e-05 4.19744e-07 0.345867 253.279 276.968 
561 0.6904 0.6904 0 3.02888e-05 3.02888e-05 -8.72959e-08 0.322917 239.68 261.481 
601 0.7032 0.7032 0 3.17533e-05 3.17533e-05 -5.65467e-07 0.329816 249.726 270.555 
641 0.0066 0.0066 0 7.08724e-08 7.08724e-08 2.44751e-08 0.0276822 15.0314 19.6247 
681 0.001 0.001 0 -2.5759e-08 -2.5759e-08 -1.70497e-08 0.00025759 0.0196471 0.0441687 
721 0.001 0.001 0 -2.88162e-08 -2.88162e-08 7.13264e-10 0.000288162 0.0221143 0.0858679 
761 0.0012 0.0012 0 -3.57721e-08 -3.57721e-08 1.47227e-08 0.000357721 0.0707007 0.0729708 
801 0.0014 0.0014 0 -4.11036e-08 -4.11036e-08 -6.01047e-09 0.000411036 0.147821 0.215613 
841 0.001 0.001 0 -3.2655e-08 -3.2655e-08 -1.31357e-08 0.00032655 -0.0235142 0.0150259 
881 0.0012 0.0012 0 -4.30327e-08 -4.30327e-08 7.70097e-09 0.000430327 0.0636068 0.0887779 
921 0.0006 0.0006 0 -1.77566e-08 -1.77566e-08 -1.25675e-09 0.000177566 0.0222008 0.0271732 
961 0.0022 0.0022 0 -4.57432e-08 -4.57432e-08 -3.49343e-08 0.00920955 2.5469 3.39424 
1001 0.6772 0.6772 0 3.18857e-05 3.18857e-05 5.35591e-07 0.316135 249.849 268.479 
1041 0.7172 0.7172 0 3.23882e-05 3.23882e-05 -1.06573e-07 0.334466 256.005 278.16 
1081 0.7348 0.7348 0 3.15102e-05 3.15102e-05 5.64956e-08 0.339589 242.83 267.017 
1121 0.742 0.742 0 3.19965e-05 3.19965e-05 5.85196e-07 0.345124 251.938 275.202 
1161 0.751 0.751 0 3.11887e-05 3.11887e-05 8.03647e-07 0.350726 249.226 271.666 
1201 0.7886 0.7886 0 3.22755e-05 3.22755e-05 -2.32969e-07 0.367229 256.836 284.261 
1241 0.8474 0.8474 0 3.45183e-05 3.45183e-05 1.82044e-07 0.397635 272.749 301.5 
2 0.1658 0.1658 0 8.64585e-06 8.64585e-06 -1.03979e-07 0.910635 616.138 676.946 
42 6.5744 6.5744 0 0.000511529 0.000511529 -1.18946e-06 5.11529 2275.32 2486.96 
82 6.8528 6.8528 0 0.000510541 0.000510541 -9.19502e-07 5.10541 2178.15 2406.46 
122 6.8616 6.8616 0 0.000498861 0.000498861 -1.53785e-06 4.98861 2073.15 2313.64 
162 6.934 6.934 0 0.000499309 0.000499309 -1.17126e-07 4.99309 2079.21 2317.75 
202 7.0002 7.0002 0 0.000507361 0.000507361 -1.01924e-07 5.07361 2115.44 2360.85 
242 6.835 6.835 0 0.000505031 0.000505031 1.03867e-06 5.05031 2133.69 2362.02 
282 6.7138 6.7138 0 0.000512001 0.000512001 -1.72399e-06 5.12001 2266 2498.78 
322 0.5188 0.5188 0 4.3354e-05 4.3354e-05 -4.06631e-07 4.33777 2173.94 2352.96 
362 0.8446 0.8446 0 3.34123e-05 3.34123e-05 -9.74898e-08 0.391052 264.696 292.56 
402 0.7862 0.7862 0 3.20671e-05 3.20671e-05 -5.141e-07 0.362646 252.174 275.955 
442 0.7662 0.7662 0 3.2151e-05 3.2151e-05 -2.183e-07 0.356281 252.559 277.218 
482 0.732 0.732 0 3.11622e-05 3.11622e-05 -3.53944e-07 0.344391 248.793 271.486 
522 0.7454 0.7454 0 3.24745e-05 3.24745e-05 2.45923e-07 0.348577 253.017 275.412 
562 0.6998 0.6998 0 3.01738e-05 3.01738e-05 -2.89083e-07 0.326992 238.231 257.061 
602 0.6804 0.6804 0 3.12097e-05 3.12097e-05 -1.47075e-08 0.322547 244.42 265.015 
642 0.0048 0.0048 0 5.90228e-08 5.90228e-08 -2.05815e-08 0.0183853 13.0623 15.7637 
682 0.0008 0.0008 0 -1.94549e-08 -1.94549e-08 1.60797e-08 0.000194549 -0.0116753 0.0482977 
722 0.002 0.002 0 -5.23435e-08 -5.23435e-08 1.66866e-08 0.000523435 0.120753 0.295271 
762 0.0012 0.0012 0 -3.63245e-08 -3.63245e-08 3.38266e-09 0.000363245 0.0478883 0.0906268 
802 0.0006 0.0006 0 -2.64672e-08 -2.64672e-08 -1.57709e-08 0.000264672 0.13247 0.179731 
842 0.0016 0.0016 0 -6.27759e-08 -6.27759e-08 -8.92287e-09 0.000627759 0.064855 0.0270716 
882 0.0024 0.0024 0 -7.37466e-08 -7.37466e-08 4.25535e-09 0.000737466 0.0382706 0.219923 
922 0.0018 0.0018 0 -6.08498e-08 -6.08498e-08 1.89384e-09 0.000608498 0.0418403 0.151601 
962 0.0036 0.0036 0 2.04576e-08 2.04576e-08 -2.55605e-08 0.013908 10.6858 13.2458 
1002 0.6762 0.6762 0 2.99624e-05 2.99624e-05 -4.37621e-08 0.316271 235.58 254.101 
1042 0.7174 0.7174 0 3.20393e-05 3.20393e-05 2.72396e-07 0.33083 250.154 274.186 
1082 0.748 0.748 0 3.21077e-05 3.21077e-05 1.82215e-07 0.348294 249.007 271.201 
1122 0.7452 0.7452 0 3.23939e-05 3.23939e-05 -3.02273e-07 0.348055 256.01 277.533 
1162 0.7644 0.7644 0 3.18848e-05 3.18848e-05 -5.5741e-07 0.354589 255.648 279.512 
1202 0.7942 0.7942 0 3.13576e-05 3.13576e-05 -3.12688e-07 0.370518 247.069 274.565 
1242 0.8432 0.8432 0 3.30519e-05 3.30519e-05 6.6128e-08 0.395631 260.857 290.603 
3 0.2102 0.2102 0 1.26128e-05 1.26128e-05 2.87191e-07 1.22238 841.36 895.802 
43 6.5912 6.5912 0 0.000511921 0.000511921 5.61972e-07 5.11921 2237.33 2458.59 
83 6.8906 6.8906 0 0.000512615 0.000512615 -1.89564e-07 5.12615 2193.92 2430.9 
123 6.8812 6.8812 0 0.000499 0.000499 1.05029e-06 4.99 2090.87 2328.18 
163 6.948 6.948 0 0.000500918 0.000500918 1.02406e-06 5.00918 2104.41 2338.69 
203 6.9066 6.9066 0 0.000500858 0.000500858 1.27949e-06 5.00858 2069.68 2310.37 
243 6.9414 6.9414 0 0.000512336 0.000512336 -1.706e-06 5.12336 2166.5 2401.07 
283 6.6968 6.6968 0 0.000511956 0.000511956 1.01046e-06 5.11956 2260.91 2488.05 
323 0.4534 0.4534 0 3.71067e-05 3.71067e-05 -7.28822e-08 3.66088 1947.55 2088.25 
363 0.8306 0.8306 0 3.29202e-05 3.29202e-05 -8.38661e-07 0.384618 263.19 293.934 
403 0.7856 0.7856 0 3.17068e-05 3.17068e-05 9.18947e-07 0.362274 251.472 274.642 
443 0.7714 0.7714 0 3.19914e-05 3.19914e-05 5.62913e-08 0.356769 252.034 276.406 
483 0.749 0.749 0 3.23079e-05 3.23079e-05 2.58248e-07 0.350914 251.92 275.146 
523 0.7224 0.7224 0 3.08077e-05 3.08077e-05 -9.73423e-10 0.339053 242.818 266.734 
563 0.6926 0.6926 0 3.12313e-05 3.12313e-05 -3.30317e-07 0.320807 241.366 262.534 
603 0.6806 0.6806 0 3.00538e-05 3.00538e-05 -1.77524e-07 0.318096 235.95 257.698 
643 0.0052 0.0052 0 8.26767e-09 8.26767e-09 -7.29919e-09 0.0168959 9.05837 10.65 
683 0.002 0.002 0 -5.57733e-08 -5.57733e-08 2.65504e-08 0.000557733 0.211628 0.329258 
723 0.0026 0.0026 0 -8.33499e-08 -8.33499e-08 -5.69575e-09 0.000833499 0.307601 0.670669 
763 0.002 0.002 0 -4.35082e-08 -4.35082e-08 1.61623e-08 0.000435082 0.223279 0.299141 
803 0.0008 0.0008 0 -1.50624e-08 -1.50624e-08 -1.70244e-09 0.000150624 0.151577 0.157496 
843 0.0018 0.0018 0 -4.5227e-08 -4.5227e-08 8.88349e-09 0.00045227 0.35713 0.567355 
883 0.0016 0.0016 0 -3.97235e-08 -3.97235e-08 2.16102e-08 0.000397235 0.0698942 0.199065 
923 0.0018 0.0018 0 -5.1734e-08 -5.1734e-08 1.15216e-08 0.00051734 0.040881 0.0383086 
963 0.0054 0.0054 0 2.73938e-08 2.73938e-08 -7.47655e-09 0.0220506 12.2685 12.5383 
1003 0.6906 0.6906 0 3.12401e-05 3.12401e-05 -2.45927e-07 0.323556 244.506 262.89 
1043 0.7116 0.7116 0 3.16811e-05 3.16811e-05 1.72672e-07 0.329896 248.92 271.632 
1083 0.7374 0.7374 0 3.1335e-05 3.1335e-05 -2.69932e-07 0.345306 246.594 268.917 
1123 0.7522 0.7522 0 3.26627e-05 3.26627e-05 -2.53956e-07 0.347587 257.18 279.038 
1163 0.7572 0.7572 0 3.20433e-05 3.20433e-05 4.73534e-08 0.350776 253.964 278.265 
1203 0.784 0.784 0 3.25355e-05 3.25355e-05 -4.17312e-07 0.367374 256.705 280.05 
1243 0.8342 0.8342 0 3.24883e-05 3.24883e-05 -2.9978e-07 0.391342 260.242 286.491 
4 0.2426 0.2426 0 1.53866e-05 1.53866e-05 -5.5897e-08 1.48237 1015.77 1092.65 
44 6.6252 6.6252 0 0.000511269 0.000511269 -7.83223e-08 5.11269 2239.41 2469.02 
84 6.8592 6.8592 0 0.000507453 0.000507453 3.73538e-08 5.07453 2164.49 2392.36 
124 6.8846 6.8846 0 0.000498846 0.000498846 -1.35396e-06 4.98846 2072.46 2312.22 
164 6.9622 6.9622 0 0.000500703 0.000500703 2.18711e-06 5.00703 2076.33 2320.18 
204 6.9406 6.9406 0 0.000503193 0.000503193 -1.03701e-06 5.03193 2100.7 2342.04 
244 6.8388 6.8388 0 0.00050204 0.00050204 2.05692e-06 5.0204 2130.92 2374.19 
284 6.669 6.669 0 0.000510248 0.000510248 -1.64172e-06 5.10248 2256.06 2483.63 
324 0.4238 0.4238 0 3.40664e-05 3.40664e-05 2.16924e-08 3.37944 1828.48 1964.6 
364 0.8144 0.8144 0 3.28718e-05 3.28718e-05 -2.41235e-07 0.379013 257.81 282.345 
404 0.7946 0.7946 0 3.28154e-05 3.28154e-05 1.03344e-07 0.368848 260.913 286.416 
444 0.7908 0.7908 0 3.31695e-05 3.31695e-05 1.35302e-07 0.366418 260.274 285.76 
484 0.7684 0.7684 0 3.28833e-05 3.28833e-05 1.1517e-07 0.362176 259.309 281.651 
524 0.7392 0.7392 0 3.21677e-05 3.21677e-05 -1.19356e-08 0.347133 253.418 275.609 
564 0.716 0.716 0 3.08116e-05 3.08116e-05 -1.6907e-07 0.3328 239.308 260.007 
604 0.682 0.682 0 3.11224e-05 3.11224e-05 -2.06624e-07 0.315711 240.083 259.558 
644 0.0032 0.0032 0 -1.67076e-08 -1.67076e-08 1.55256e-08 0.0105357 4.28723 5.5182 
684 0.0012 0.0012 0 -3.45786e-08 -3.45786e-08 1.5826e-08 0.000345786 0.140276 0.371556 
724 0.002 0.002 0 -6.49924e-08 -6.49924e-08 -2.42334e-08 0.000649924 0.100244 0.135357 
764 0.0006 0.0006 0 -2.29428e-08 -2.29428e-08 4.16399e-10 0.000229428 -0.00858862 -0.0185454 
804 0.0018 0.0018 0 -5.39545e-08 -5.39545e-08 -1.5329e-08 0.000539545 0.188314 0.280109 
844 0.0004 0.0004 0 -1.23493e-08 -1.23493e-08 -2.84208e-09 0.000123493 -0.0353138 -0.0413631 
884 0.0016 0.0016 0 -5.46809e-08 -5.46809e-08 6.17117e-09 0.000546809 0.0622648 0.104577 
924 0.001 0.001 0 -3.99131e-08 -3.99131e-08 -7.69308e-09 0.000399131 0.104044 0.0808539 
964 0.0074 0.0074 0 7.79626e-08 7.79626e-08 -1.16915e-08 0.0316133 17.491 21.7175 
1004 0.696 0.696 0 3.15536e-05 3.15536e-05 -1.78182e-08 0.323598 247.333 268.03 
1044 0.709 0.709 0 3.20772e-05 3.20772e-05 9.18148e-08 0.33017 250.991 273.622 
1084 0.7226 0.7226 0 3.21574e-05 3.21574e-05 3.69116e-07 0.335579 252.039 273.078 
1124 0.7686 0.7686 0 3.22469e-05 3.22469e-05 -6.21967e-07 0.356001 253.75 277.04 
1164 0.7768 0.7768 0 3.16006e-05 3.16006e-05 -3.7701e-08 0.362338 250.383 273.308 
1204 0.8078 0.8078 0 3.28464e-05 3.28464e-05 4.1664e-07 0.375057 258.176 283.312 
1244 0.831 0.831 0 3.2633e-05 3.2633e-05 1.74696e-07 0.381488 257.85 286.708 
5 0.2894 0.2894 0 1.9612e-05 1.9612e-05 1.8135e-08 1.8475 1200.52 1292.52 
45 6.6096 6.6096 0 0.000510113 0.000510113 1.3023e-06 5.10113 2251.63 2468.57 
85 6.794 6.794 0 0.000500935 0.000500935 -2.56751e-06 5.00935 2120.72 2349.26 
125 6.8226 6.8226 0 0.000494922 0.000494922 -3.35818e-07 4.94922 2064.71 2300.84 
165 6.9478 6.9478 0 0.000503717 0.000503717 4.21787e-07 5.03717 2091.24 2323.67 
205 6.9482 6.9482 0 0.000503197 0.000503197 1.0643e-07 5.03197 2092.29 2336.83 
245 6.7924 6.7924 0 0.000500601 0.000500601 9.355e-07 5.00601 2133.74 2363.39 
285 6.73 6.73 0 0.000516292 0.000516292 7.93532e-08 5.16292 2261.52 2487.55 
325 0.3876 0.3876 0 2.97922e-05 2.97922e-05 1.51939e-07 2.93318 1676.19 1797.64 
365 0.8214 0.8214 0 3.2686e-05 3.2686e-05 2.55615e-07 0.379623 256.34 283.27 
405 0.7884 0.7884 0 3.22575e-05 3.22575e-05 -3.32056e-07 0.367761 254.608 279.285 
445 0.762 0.762 0 3.21931e-05 3.21931e-05 -2.18183e-07 0.352355 250.054 275.167 
485 0.7752 0.7752 0 3.32961e-05 3.32961e-05 -2.303e-07 0.362067 261.911 288.867 
525 0.7336 0.7336 0 3.23607e-05 3.23607e-05 -5.50533e-08 0.336595 251.396 272.725 
565 0.7032 0.7032 0 3.14437e-05 3.14437e-05 -4.27363e-07 0.325638 247.741 269.278 
605 0.6922 0.6922 0 3.12172e-05 3.12172e-05 4.1245e-07 0.318684 245.656 264.382 
645 0.0018 0.0018 0 1.45772e-09 1.45772e-09 1.90141e-08 0.00553361 5.95842 6.15666 
685 0.0018 0.0018 0 -5.26765e-08 -5.26765e-08 -7.66644e-09 0.000526765 0.0255501 0.0670726 
725 0.0018 0.0018 0 -7.41012e-08 -7.41012e-08 -2.74318e-09 0.000741012 0.143782 0.279188 
765 0.001 0.001 0 -3.02484e-08 -3.02484e-08 1.92246e-08 0.000302484 0.149164 0.154284 
805 0.0012 0.0012 0 -5.41468e-08 -5.41468e-08 1.03099e-09 0.000541468 0.140039 0.226 
845 0.0016 0.0016 0 -5.11828e-08 -5.11828e-08 -4.44365e-09 0.000511828 0.363899 0.495137 
885 0.0018 0.0018 0 -4.80608e-08 -4.80608e-08 -3.46535e-09 0.000480608 0.0720883 0.0388803 
925 0.0018 0.0018 0 -8.6103e-08 -8.6103e-08 -1.12021e-08 0.00086103 0.0836615 0.163598 
965 0.0112 0.0112 0 1.32849e-07 1.32849e-07 5.30361e-08 0.0484519 23.7212 27.4534 
1005 0.6712 0.6712 0 3.05181e-05 3.05181e-05 -1.61505e-07 0.309551 235.351 256.642 
1045 0.7264 0.7264 0 3.25234e-05 3.25234e-05 -3.29547e-07 0.337123 257.42 281.479 
1085 0.7416 0.7416 0 3.1775e-05 3.1775e-05 2.31412e-07 0.344523 249.664 272.695 
1125 0.7456 0.7456 0 3.15148e-05 3.15148e-05 -5.23321e-07 0.349989 248.253 270.789 
1165 0.7374 0.7374 0 2.9811e-05 2.9811e-05 1.16867e-07 0.342838 231.285 256.944 
1205 0.7796 0.7796 0 3.1496e-05 3.1496e-05 -2.52497e-07 0.362823 250.842 278.223 
1245 0.839 0.839 0 3.27334e-05 3.27334e-05 -8.02086e-07 0.390749 263.352 290.956 
6 0.3146 0.3146 0 2.18026e-05 2.18026e-05 1.35272e-07 2.15032 1285.88 1389.6 
46 6.669 6.669 0 0.000513238 0.000513238 7.2122e-08 5.13238 2277.64 2503.66 
86 6.805 6.805 0 0.00050556 0.00050556 1.3052e-06 5.0556 2136.22 2369.17 
126 6.9246 6.9246 0 0.000500406 0.000500406 2.05083e-06 5.00406 2109.19 2352.4 
166 6.9844 6.9844 0 0.000501041 0.000501041 -2.99341e-07 5.01041 2075.71 2320.59 
206 6.9428 6.9428 0 0.000500157 0.000500157 -1.08772e-07 5.00157 2084.52 2321.74 
246 6.8514 6.8514 0 0.00050712 0.00050712 -2.07627e-07 5.0712 2163.51 2395.57 
286 6.7038 6.7038 0 0.000513827 0.000513827 -7.96636e-07 5.13827 2262.92 2487.12 
326 0.3438 0.3438 0 2.52837e-05 2.52837e-05 -4.80821e-07 2.4982 1418.28 1520.32 
366 0.818 0.818 0 3.34024e-05 3.34024e-05 -3.32124e-07 0.378648 264.296 293.97 
406 0.8134 0.8134 0 3.34429e-05 3.34429e-05 1.3746e-07 0.381846 266.472 294.588 
446 0.7498 0.7498 0 3.13584e-05 3.13584e-05 3.03385e-08 0.349662 244.143 267.652 
486 0.7512 0.7512 0 3.17409e-05 3.17409e-05 3.32105e-07 0.346808 247.338 269.349 
526 0.7266 0.7266 0 3.13242e-05 3.13242e-05 2.0451e-07 0.337295 247.914 269.2 
566 0.6818 0.6818 0 2.99277e-05 2.99277e-05 -3.95163e-07 0.314912 234.696 256.018 
606 0.671 0.671 0 3.07182e-05 3.07182e-05 4.94925e-08 0.314013 240.949 260.857 
646 0.0016 0.0016 0 -9.6361e-09 -9.6361e-09 -3.47533e-09 0.00506922 3.33681 4.06422 
686 0.0014 0.0014 0 -3.22796e-08 -3.22796e-08 1.14993e-08 0.000322796 -0.000250996 0.0258703 
726 0.0016 0.0016 0 -4.80703e-08 -4.80703e-08 2.6408e-08 0.000480703 0.337929 0.488338 
766 0.0022 0.0022 0 -5.63938e-08 -5.63938e-08 8.18436e-09 0.000563938 0.0250795 0.179348 
806 0.0012 0.0012 0 -2.45085e-08 -2.45085e-08 6.72064e-09 0.000245085 0.0621004 0.0508271 
846 0.0012 0.0012 0 -3.38886e-08 -3.38886e-08 -1.01045e-08 0.000338886 0.191341 0.212126 
886 0.0016 0.0016 0 -3.53319e-08 -3.53319e-08 2.42368e-08 0.000353319 0.0894067 0.099953 
926 0.0014 0.0014 0 -3.77073e-08 -3.77073e-08 -3.53915e-09 0.000377073 0.0418901 0.161004 
966 0.0178 0.0178 0 3.75621e-07 3.75621e-07 2.5994e-08 0.0771906 47.3874 47.369 
1006 0.699 0.699 0 3.17296e-05 3.17296e-05 1.3238e-07 0.324068 249.772 268.176 
1046 0.7014 0.7014 0 3.09721e-05 3.09721e-05 3.32831e-07 0.320825 240.177 258.98 
1086 0.7276 0.7276 0 3.07176e-05 3.07176e-05 2.70846e-07 0.33824 238.976 260.695 
1126 0.7584 0.7584 0 3.18548e-05 3.18548e-05 7.68847e-07 0.35224 247.159 272.17 
1166 0.797 0.797 0 3.29624e-05 3.29624e-05 6.13116e-07 0.372343 259.201 284.358 
1206 0.7922 0.7922 0 3.20188e-05 3.20188e-05 -2.4656e-07 0.367219 252.751 277.491 
1246 0.8386 0.8386 0 3.32789e-05 3.32789e-05 -6.66703e-08 0.389687 263.901 289.981 
7 0.3374 0.3374 0 2.52296e-05 2.52296e-05 1.27455e-07 2.4923 1422.39 1522.39 
47 6.6738 6.6738 0 0.000512783 0.000512783 5.78524e-07 5.12783 2257.88 2471.86 
87 6.8432 6.8432 0 0.000504473 0.000504473 -6.48675e-07 5.04473 2148.72 2378.29 
127 6.931 6.931 0 0.000502215 0.000502215 -6.69482e-09 5.02215 2096.75 2335.72 
167 6.9854 6.9854 0 0.000501821 0.000501821 8.21274e-07 5.01821 2078.69 2325.17 
207 6.9838 6.9838 0 0.000503737 0.000503737 -1.49748e-06 5.03737 2109.5 2359.69 
247 6.8096 6.8096 0 0.000507107 0.000507107 1.46437e-06 5.07107 2154.15 2389.21 
287 6.6632 6.6632 0 0.000513252 0.000513252 1.65847e-06 5.13252 2265.6 2492.34 
327 0.3158 0.3158 0 2.22907e-05 2.22907e-05 3.93681e-07 2.20135 1316.76 1424.48 
367 0.803 0.803 0 3.1296e-05 3.1296e-05 -2.99541e-07 0.373495 249.315 275.974 
407 0.7942 0.7942 0 3.15908e-05 3.15908e-05 4.91755e-07 0.36998 252.47 276.384 
447 0.7654 0.7654 0 3.18538e-05 3.18538e-05 -3.2057e-07 0.357758 250.868 275.993 
487 0.7654 0.7654 0 3.24071e-05 3.24071e-05 -6.91653e-07 0.348867 256.66 281.627 
527 0.699 0.699 0 3.07789e-05 3.07789e-05 -1.99959e-08 0.329965 239.747 260.379 
567 0.6886 0.6886 0 3.10681e-05 3.10681e-05 -5.47653e-07 0.322925 240.963 261.06 
607 0.7072 0.7072 0 3.23412e-05 3.23412e-05 -1.37171e-07 0.331352 250.808 271.191 
647 0.0002 0.0002 0 -3.53103e-09 -3.53103e-09 0 0.000398027 -1.3247e-16 -1.3247e-16 
687 0.0016 0.0016 0 -4.63451e-08 -4.63451e-08 2.17818e-08 0.000463451 0.0333069 0.0565702 
727 0.0008 0.0008 0 -2.78665e-08 -2.78665e-08 1.16092e-08 0.000278665 0.0769027 0.0639954 
767 0.0008 0.0008 0 -2.88917e-08 -2.88917e-08 5.51423e-09 0.000288917 0.00496678 0.0876488 
807 0.0014 0.0014 0 -3.25821e-08 -3.25821e-08 -3.90448e-09 0.000325821 0.149028 0.204953 
847 0.001 0.001 0 -2.8293e-08 -2.8293e-08 -1.2017e-09 0.00028293 0.0597444 0.0777952 
887 0.0026 0.0026 0 -8.16567e-08 -8.16567e-08 -1.65926e-08 0.000816567 0.0995874 0.376011 
927 0.0016 0.0016 0 -3.62092e-08 -3.62092e-08 -2.74314e-08 0.000362092 0.178247 0.211793 
967 0.0244 0.0244 0 7.87626e-07 7.87626e-07 3.11159e-09 0.114523 80.3531 83.8047 
1007 0.6794 0.6794 0 3.06265e-05 3.06265e-05 -2.18086e-07 0.313344 238.544 257.468 
1047 0.7036 0.7036 0 3.12419e-05 3.12419e-05 9.61533e-08 0.328025 244.151 264.212 
1087 0.7226 0.7226 0 3.12627e-05 3.12627e-05 -4.52535e-07 0.338535 247.27 271.604 
1127 0.7524 0.7524 0 3.19046e-05 3.19046e-05 -8.4292e-08 0.352547 253.241 277.455 
1167 0.7682 0.7682 0 3.20695e-05 3.20695e-05 1.49801e-07 0.356632 251.984 279.388 
1207 0.7874 0.7874 0 3.159e-05 3.159e-05 -5.15939e-08 0.368757 250.764 277.957 
1247 0.8204 0.8204 0 3.13355e-05 3.13355e-05 3.95213e-07 0.382631 250.145 278.431 
8 0.3946 0.3946 0 3.00499e-05 3.00499e-05 -5.30591e-07 2.97022 1697.63 1832.22 
48 6.6762 6.6762 0 0.000515192 0.000515192 1.32936e-06 5.15192 2262.53 2490.68 
88 6.898 6.898 0 0.000510807 0.000510807 -8.6309e-07 5.10807 2195.6 2437.52 
128 6.867 6.867 0 0.000497629 0.000497629 -8.74887e-08 4.97629 2079.36 2312.71 
168 6.9276 6.9276 0 0.000499253 0.000499253 3.86813e-07 4.99253 2069.49 2314.35 
208 6.882 6.882 0 0.000497895 0.000497895 -1.34262e-08 4.97895 2068.93 2298.21 
248 6.7974 6.7974 0 0.000501184 0.000501184 4.70748e-08 5.01184 2125.51 2355.26 
288 6.5764 6.5764 0 0.000506698 0.000506698 1.06096e-06 5.06698 2232.4 2459.22 
328 0.2708 0.2708 0 1.82326e-05 1.82326e-05 2.85837e-07 1.77912 1141.28 1219.96 
368 0.833 0.833 0 3.32975e-05 3.32975e-05 1.33885e-07 0.385027 260.904 287.198 
408 0.8088 0.8088 0 3.33791e-05 3.33791e-05 3.47936e-07 0.379915 261.671 289.89 
448 0.7666 0.7666 0 3.20912e-05 3.20912e-05 3.73163e-07 0.355508 253.468 276.493 
488 0.7454 0.7454 0 3.17024e-05 3.17024e-05 -2.87326e-07 0.342654 248.749 272.025 
528 0.7234 0.7234 0 3.13185e-05 3.13185e-05 2.11938e-07 0.336844 245.014 268.348 
568 0.706 0.706 0 3.11377e-05 3.11377e-05 -1.21245e-07 0.324298 239.839 262.509 
608 0.6716 0.6716 0 3.07049e-05 3.07049e-05 -4.24897e-07 0.312499 239.442 261.133 
648 0.0006 0.0006 0 -7.79575e-09 -7.79575e-09 1.71194e-08 0.00204756 2.13317 2.81998 
688 0.0032 0.0032 0 -9.4946e-08 -9.4946e-08 8.97208e-09 0.00094946 0.215659 0.352591 
728 0.002 0.002 0 -4.89358e-08 -4.89358e-08 -5.15353e-08 0.000489358 0.336584 0.407743 
768 0.0014 0.0014 0 -5.17674e-08 -5.17674e-08 -2.0803e-09 0.000517674 0.0525059 0.211423 
808 0.0012 0.0012 0 -4.4589e-08 -4.4589e-08 -3.26618e-09 0.00044589 0.0452497 0.117236 
848 0.0016 0.0016 0 -4.30167e-08 -4.30167e-08 1.73654e-08 0.000430167 0.00413082 0.0160879 
888 0.0012 0.0012 0 -2.94822e-08 -2.94822e-08 -5.43456e-09 0.000294822 -0.0107234 0.126666 
928 0.0014 0.0014 0 -3.0513e-08 -3.0513e-08 7.2582e-09 0.00030513 0.0704746 0.223541 
968 0.0432 0.0432 0 1.46369e-06 1.46369e-06 -4.66654e-08 0.204841 133.657 150.033 
1008 0.7006 0.7006 0 3.18693e-05 3.18693e-05 -6.12899e-07 0.322912 244.716 263.033 
1048 0.6948 0.6948 0 3.00336e-05 3.00336e-05 8.96163e-08 0.323509 232.391 255.285 
1088 0.7334 0.7334 0 3.22536e-05 3.22536e-05 -1.31395e-07 0.340546 255.146 278.051 
1128 0.7336 0.7336 0 3.07125e-05 3.07125e-05 5.84572e-07 0.342192 240.106 262.261 
1168 0.774 0.774 0 3.20566e-05 3.20566e-05 1.72969e-07 0.364548 253.572 277.71 
1208 0.7932 0.7932 0 3.17903e-05 3.17903e-05 -2.64752e-07 0.365659 252.039 279.344 
1248 0.8142 0.8142 0 3.17526e-05 3.17526e-05 3.74114e-07 0.37821 252.096 279.844 
9 0.4366 0.4366 0 3.48215e-05 3.48215e-05 -1.13883e-07 3.43839 1871.61 1993.72 
49 6.6218 6.6218 0 0.000508868 0.000508868 -3.47873e-08 5.08868 2247.52 2468.5 
89 6.84 6.84 0 0.00050532 0.00050532 -2.39662e-07 5.0532 2144.99 2377.49 
129 6.9312 6.9312 0 0.000500632 0.000500632 6.40435e-07 5.00632 2097.96 2336.98 
169 6.9408 6.9408 0 0.000497868 0.000497868 -3.18576e-07 4.97868 2116.68 2356.92 
209 6.8982 6.8982 0 0.000500027 0.000500027 -1.69087e-06 5.00027 2083.27 2322.45 
249 6.8284 6.8284 0 0.000504349 0.000504349 6.45249e-07 5.04349 2143.65 2377.59 
289 6.701 6.701 0 0.00051802 0.00051802 7.33543e-07 5.1802 2271.51 2497.68 
329 0.2406 0.2406 0 1.52203e-05 1.52203e-05 -2.84973e-07 1.5079 994.586 1082.37 
369 0.8482 0.8482 0 3.38245e-05 3.38245e-05 2.1293e-07 0.390717 258.943 288.436 
409 0.7964 0.7964 0 3.33189e-05 3.33189e-05 5.78506e-08 0.368684 260.604 288.065 
449 0.7598 0.7598 0 3.19321e-05 3.19321e-05 -1.7774e-07 0.354759 250.233 272.969 
489 0.7278 0.7278 0 3.19283e-05 3.19283e-05 -3.42031e-07 0.336454 249.792 271.868 
529 0.7206 0.7206 0 3.1076e-05 3.1076e-05 7.47841e-08 0.33466 245.239 267.359 
569 0.6978 0.6978 0 3.05612e-05 3.05612e-05 1.20669e-07 0.329192 237.113 259.533 
609 0.6604 0.6604 0 3.06943e-05 3.06943e-05 7.8123e-08 0.31055 235.992 254.883 
649 0.0004 0.0004 0 -1.13122e-08 -1.13122e-08 1.87105e-09 0.00163462 0.37342 0.56552 
689 0.002 0.002 0 -5.59815e-08 -5.59815e-08 -8.13384e-09 0.000559815 0.0624205 0.128566 
729 0.0014 0.0014 0 -4.51583e-08 -4.51583e-08 -1.80741e-09 0.000451583 0.149803 0.146901 
769 0.0014 0.0014 0 -4.57444e-08 -4.57444e-08 -2.1487e-08 0.000457444 0.0250469 0.0823938 
809 0.0014 0.0014 0 -2.83433e-08 -2.83433e-08 1.05934e-08 0.000283433 0.259989 0.30104 
849 0.001 0.001 0 -2.70099e-08 -2.70099e-08 -1.19685e-08 0.000270099 0.110092 0.204406 
889 0.0018 0.0018 0 -3.63534e-08 -3.63534e-08 -1.7322e-08 0.000363534 0.173068 0.219233 
929 0.002 0.002 0 -4.84464e-08 -4.84464e-08 -1.21512e-08 0.000484464 0.11865 0.148955 
969 0.0566 0.0566 0 2.45894e-06 2.45894e-06 -4.85651e-09 0.261618 204.176 225.995 
1009 0.6988 0.6988 0 3.12061e-05 3.12061e-05 4.08811e-07 0.330371 241.697 262.069 
1049 0.7022 0.7022 0 3.08141e-05 3.08141e-05 1.94508e-07 0.322531 237.47 259.603 
1089 0.7438 0.7438 0 3.17167e-05 3.17167e-05 -1.48852e-07 0.345184 248.258 270.014 
1129 0.7364 0.7364 0 3.15561e-05 3.15561e-05 -3.53053e-07 0.343291 246.381 270.091 
1169 0.7706 0.7706 0 3.21805e-05 3.21805e-05 -3.70201e-07 0.358092 255.245 278.436 
1209 0.8166 0.8166 0 3.32999e-05 3.32999e-05 -1.24628e-07 0.378201 265.137 290.92 
1249 0.8678 0.8678 0 3.4488e-05 3.4488e-05 -2.77628e-07 0.399496 273.126 302.981 
10 0.4862 0.4862 0 3.94648e-05 3.94648e-05 -1.53053e-07 3.94534 1996.01 2139.61 
50 6.7344 6.7344 0 0.000515727 0.000515727 -6.82827e-07 5.15727 2268.09 2497.84 
90 6.8258 6.8258 0 0.000504022 0.000504022 -1.20838e-06 5.04022 2138.98 2370.37 
130 6.9034 6.9034 0 0.000499118 0.000499118 -2.18348e-07 4.99118 2084.32 2326.18 
170 6.9172 6.9172 0 0.000501324 0.000501324 -5.23565e-07 5.01324 2085.56 2325.25 
210 6.8824 6.8824 0 0.000499978 0.000499978 -6.38728e-07 4.99978 2094.54 2332 
250 6.7804 6.7804 0 0.000501987 0.000501987 3.81764e-07 5.01987 2117.7 2355.95 
290 6.635 6.635 0 0.00051206 0.00051206 -2.92371e-07 5.1206 2267.39 2491.35 
330 0.1868 0.1868 0 1.09823e-05 1.09823e-05 -2.19116e-07 1.07077 745.498 814.121 
370 0.826 0.826 0 3.29713e-05 3.29713e-05 1.49757e-07 0.38799 264.716 292.288 
410 0.7748 0.7748 0 3.14895e-05 3.14895e-05 4.27369e-07 0.357083 247.75 271.642 
450 0.7754 0.7754 0 3.31456e-05 3.31456e-05 -1.42499e-07 0.359954 257.814 281.405 
490 0.7388 0.7388 0 3.06858e-05 3.06858e-05 -3.99105e-07 0.34842 243.753 268.644 
530 0.7332 0.7332 0 3.16962e-05 3.16962e-05 5.36438e-07 0.341363 248.91 271.918 
570 0.6968 0.6968 0 3.08239e-05 3.08239e-05 -3.98637e-07 0.324995 239.24 260.125 
610 0.6822 0.6822 0 3.1084e-05 3.1084e-05 -4.59265e-07 0.318534 240.93 263.184 
650 0 0 0 0 0 0 0 0 0 
690 0.0024 0.0024 0 -7.69408e-08 -7.69408e-08 -5.61631e-09 0.000769408 0.178928 0.187938 
730 0.0026 0.0026 0 -7.14294e-08 -7.14294e-08 1.71234e-08 0.000714294 0.13768 0.203789 
770 0.0018 0.0018 0 -4.14915e-08 -4.14915e-08 -8.5452e-09 0.000414915 0.398493 0.563451 
810 0.001 0.001 0 -3.82098e-08 -3.82098e-08 -1.97741e-08 0.000382098 0.0765522 0.155055 
850 0.0022 0.0022 0 -5.71365e-08 -5.71365e-08 -2.12637e-08 0.000571365 0.020252 0.0692424 
890 0.0018 0.0018 0 -4.81125e-08 -4.81125e-08 -2.85973e-08 0.000481125 0.160778 0.223587 
930 0.0026 0.0026 0 -8.83199e-08 -8.83199e-08 1.09199e-08 0.000883199 0.24165 0.207408 
970 0.177 0.177 0 8.1755e-06 8.1755e-06 1.57973e-07 0.328472 251.689 273.51 
1010 0.6944 0.6944 0 3.13043e-05 3.13043e-05 -1.89993e-07 0.32421 238.976 260.614 
1050 0.705 0.705 0 3.12759e-05 3.12759e-05 3.06936e-08 0.325755 246.243 267.343 
1090 0.7508 0.7508 0 3.19184e-05 3.19184e-05 2.20447e-08 0.347282 249.215 272.196 
1130 0.7416 0.7416 0 3.19668e-05 3.19668e-05 1.16736e-07 0.344114 247.779 270.103 
1170 0.7826 0.7826 0 3.28425e-05 3.28425e-05 -2.22174e-07 0.361367 259.145 283.02 
1210 0.7984 0.7984 0 3.26859e-05 3.26859e-05 1.53922e-07 0.371598 260.127 288.744 
1250 0.8442 0.8442 0 3.30339e-05 3.30339e-05 -1.15409e-09 0.394816 265.337 291.371 
11 0.5046 0.5046 0 4.13069e-05 4.13069e-05 -6.02383e-07 4.1121 2108.13 2283.23 
51 6.6808 6.6808 0 0.000508558 0.000508558 -7.6539e-07 5.08558 2230.4 2452.9 
91 6.8438 6.8438 0 0.000502671 0.000502671 -5.97804e-07 5.02671 2101.6 2338.8 
131 6.91 6.91 0 0.000497401 0.000497401 -1.55754e-07 4.97401 2065.45 2303.58 
171 6.95 6.95 0 0.000500654 0.000500654 1.22037e-06 5.00654 2081.98 2325.72 
211 6.8824 6.8824 0 0.000498646 0.000498646 3.13043e-07 4.98646 2080.97 2325.99 
251 6.9152 6.9152 0 0.000513 0.000513 -2.29384e-06 5.13 2210.74 2453.14 
291 6.6268 6.6268 0 0.000513157 0.000513157 8.88859e-07 5.13157 2269.46 2491.28 
331 0.1574 0.1574 0 8.84333e-06 8.84333e-06 -6.05189e-08 0.873291 622.318 664.477 
371 0.821 0.821 0 3.23621e-05 3.23621e-05 -5.03248e-07 0.384106 254.296 280.89 
411 0.7966 0.7966 0 3.28259e-05 3.28259e-05 8.96266e-08 0.372933 259.129 285.832 
451 0.7746 0.7746 0 3.30011e-05 3.30011e-05 2.35746e-07 0.356968 264.383 287.659 
491 0.763 0.763 0 3.26066e-05 3.26066e-05 -2.14427e-07 0.354776 257.431 283.311 
531 0.7354 0.7354 0 3.171e-05 3.171e-05 -3.33935e-07 0.337698 248.127 273.022 
571 0.7074 0.7074 0 3.1916e-05 3.1916e-05 1.88669e-10 0.331823 248.27 270.529 
611 0.7004 0.7004 0 3.24312e-05 3.24312e-05 1.02163e-07 0.330796 252.692 273.809 
651 0 0 0 0 0 0 0 0 0 
691 0.0014 0.0014 0 -3.92497e-08 -3.92497e-08 2.9608e-08 0.000392497 0.137421 0.10277 
731 0.0008 0.0008 0 -2.71354e-08 -2.71354e-08 8.14809e-09 0.000271354 -0.0614406 -0.00779287 
771 0.0012 0.0012 0 -3.4743e-08 -3.4743e-08 -1.42117e-08 0.00034743 0.0127582 0.0864177 
811 0.0006 0.0006 0 -1.29169e-08 -1.29169e-08 -2.93216e-09 0.000129169 0.0116446 0.0091055 
851 0.0008 0.0008 0 -2.09927e-08 -2.09927e-08 -2.32861e-09 0.000209927 0.0191465 0.0111686 
891 0.001 0.001 0 -2.14682e-08 -2.14682e-08 4.00879e-09 0.000214682 0.0652453 0.107062 
931 0.0024 0.0024 0 -6.70984e-08 -6.70984e-08 1.79817e-08 0.000670984 0.0768401 0.113757 
971 0.1612 0.1612 0 7.43367e-06 7.43367e-06 -2.85643e-07 0.303271 232.557 255.365 
1011 0.6882 0.6882 0 3.08091e-05 3.08091e-05 -2.51414e-08 0.319556 241.992 261.575 
1051 0.7308 0.7308 0 3.27485e-05 3.27485e-05 -2.24055e-07 0.341522 259.616 282.491 
1091 0.7276 0.7276 0 3.21587e-05 3.21587e-05 -3.94529e-07 0.337295 252.295 275.73 
1131 0.7414 0.7414 0 3.17344e-05 3.17344e-05 4.93577e-07 0.344913 250.56 272.894 
1171 0.7794 0.7794 0 3.26842e-05 3.26842e-05 -4.99655e-08 0.358465 260.101 281.498 
1211 0.834 0.834 0 3.3262e-05 3.3262e-05 -5.62543e-07 0.386126 261.712 289.575 
1251 0.8602 0.8602 0 3.34016e-05 3.34016e-05 2.19753e-07 0.400641 265.231 297.63 
12 0.5238 0.5238 0 4.41454e-05 4.41454e-05 -3.50645e-08 4.4074 2230.45 2403.52 
52 6.6772 6.6772 0 0.000510957 0.000510957 -1.00393e-06 5.10957 2240.63 2469.41 
92 6.891 6.891 0 0.000507176 0.000507176 1.29863e-06 5.07176 2151.37 2388.08 
132 6.884 6.884 0 0.0004971 0.0004971 -1.04512e-06 4.971 2073.23 2309.82 
172 6.961 6.961 0 0.000500686 0.000500686 1.44105e-06 5.00686 2092.57 2331.41 
212 6.9202 6.9202 0 0.000499833 0.000499833 1.39649e-07 4.99833 2092.08 2332.01 
252 6.8162 6.8162 0 0.00050576 0.00050576 4.26766e-07 5.0576 2163.87 2396.63 
292 6.625 6.625 0 0.000517518 0.000517518 1.03828e-06 5.17518 2286.93 2508.41 