ITEM: TIMESTEP
25000
ITEM: NUMBER OF SURFS
1272
ITEM: BOX BOUNDS oo rr pp
0 0.3
0 0.3
-0.5 0.5
ITEM: SURFS id f_4[1] f_4[2] f_4[3] f_4[4] f_4[5] f_4[6] f_4[7] f_4[8] f_4[9] 
1 0.0968 0.0968 0 7.19323e-08 7.19323e-08 1.61606e-09 0.00449945 5.79631 5.75171 
41 5.5454 5.5454 0 6.46031e-06 6.46031e-06 -7.18269e-09 0.0646031 33.6265 33.4591 
81 5.5398 5.5398 0 6.46756e-06 6.46756e-06 -9.90771e-10 0.0646756 33.6458 33.4989 
121 5.4988 5.4988 0 6.38098e-06 6.38098e-06 4.52965e-09 0.0638098 33.311 33.1354 
161 5.5874 5.5874 0 6.50394e-06 6.50394e-06 -1.55527e-10 0.0650394 34.0059 33.8361 
201 5.5682 5.5682 0 6.4818e-06 6.4818e-06 6.80497e-09 0.064818 33.5053 33.337 
241 5.5062 5.5062 0 6.40397e-06 6.40397e-06 -6.49884e-09 0.0640397 33.2921 33.1555 
281 5.6014 5.6014 0 6.53383e-06 6.53383e-06 5.66781e-10 0.0653383 33.892 33.7371 
321 0.521 0.521 0 5.87358e-07 5.87358e-07 -9.6167e-10 0.0590126 31.3438 31.0641 
361 0.3956 0.3956 0 2.75803e-07 2.75803e-07 -1.12166e-09 0.00154128 2.27095 2.27281 
401 0.4122 0.4122 0 2.86837e-07 2.86837e-07 2.31319e-10 0.00155649 2.33315 2.33332 
441 0.4022 0.4022 0 2.78269e-07 2.78269e-07 6.96401e-10 0.0015815 2.28609 2.27429 
481 0.3848 0.3848 0 2.69403e-07 2.69403e-07 -3.96559e-09 0.00148686 2.21489 2.19737 
521 0.3854 0.3854 0 2.63471e-07 2.63471e-07 -6.21337e-10 0.00147205 2.16204 2.15522 
561 0.4162 0.4162 0 2.94338e-07 2.94338e-07 9.17483e-10 0.00161605 2.41218 2.40233 
601 0.4008 0.4008 0 2.75789e-07 2.75789e-07 2.88809e-09 0.00156751 2.25088 2.23306 
641 0.0014 0.0014 0 -2.17698e-10 -2.17698e-10 5.36675e-12 8.7584e-05 0.0132005 0.0154024 
681 0 0 0 0 0 0 0 0 0 
721 0 0 0 0 0 0 0 0 0 
761 0 0 0 0 0 0 0 0 0 
801 0 0 0 0 0 0 0 0 0 
841 0 0 0 0 0 0 0 0 0 
881 0 0 0 0 0 0 0 0 0 
921 0 0 0 0 0 0 0 0 0 
961 0.001 0.001 0 -1.35851e-10 -1.35851e-10 2.77233e-10 4.92647e-05 0.0157742 0.0173383 
1001 0.3978 0.3978 0 2.74172e-07 2.74172e-07 7.0286e-10 0.00152749 2.26021 2.24749 
1041 0.3846 0.3846 0 2.65824e-07 2.65824e-07 -2.33011e-09 0.00147088 2.18682 2.17492 
1081 0.3708 0.3708 0 2.58355e-07 2.58355e-07 -1.86871e-09 0.00143679 2.15712 2.14906 
1121 0.376 0.376 0 2.59201e-07 2.59201e-07 -8.43375e-10 0.00147786 2.13996 2.13832 
1161 0.3756 0.3756 0 2.56165e-07 2.56165e-07 -2.86918e-09 0.00145127 2.11433 2.10372 
1201 0.384 0.384 0 2.60854e-07 2.60854e-07 -1.13974e-09 0.00147152 2.14027 2.13198 
1241 0.396 0.396 0 2.76767e-07 2.76767e-07 4.61705e-09 0.00150989 2.27986 2.26855 
2 0.1406 0.1406 0 1.10667e-07 1.10667e-07 3.92987e-10 0.00727902 8.55139 8.53804 
42 5.5564 5.5564 0 6.46986e-06 6.46986e-06 9.79426e-09 0.0646986 33.5729 33.4119 
82 5.5086 5.5086 0 6.4321e-06 6.4321e-06 -3.60048e-09 0.064321 33.4655 33.3503 
122 5.4876 5.4876 0 6.39239e-06 6.39239e-06 3.29701e-09 0.0639239 33.1567 33.0154 
162 5.5342 5.5342 0 6.44396e-06 6.44396e-06 -1.74939e-09 0.0644396 33.4312 33.3041 
202 5.5378 5.5378 0 6.46239e-06 6.46239e-06 -4.61806e-09 0.0646239 33.3819 33.248 
242 5.5526 5.5526 0 6.45955e-06 6.45955e-06 9.40244e-10 0.0645955 33.6003 33.4631 
282 5.5088 5.5088 0 6.4263e-06 6.4263e-06 7.24038e-09 0.064263 33.5202 33.3589 
322 0.5024 0.5024 0 5.55022e-07 5.55022e-07 -4.2073e-10 0.0548941 32.0403 31.9604 
362 0.3976 0.3976 0 2.74131e-07 2.74131e-07 1.5401e-09 0.00152271 2.25619 2.23832 
402 0.3854 0.3854 0 2.63832e-07 2.63832e-07 2.96994e-09 0.0014898 2.18491 2.18007 
442 0.4 0.4 0 2.74067e-07 2.74067e-07 1.87602e-09 0.00153567 2.23502 2.22495 
482 0.3896 0.3896 0 2.66799e-07 2.66799e-07 -1.97367e-09 0.00149043 2.19863 2.18787 
522 0.3818 0.3818 0 2.61971e-07 2.61971e-07 9.6453e-10 0.00146944 2.15702 2.14553 
562 0.377 0.377 0 2.61846e-07 2.61846e-07 -2.85821e-10 0.00144842 2.17822 2.16235 
602 0.3924 0.3924 0 2.75881e-07 2.75881e-07 1.50722e-10 0.00150664 2.24293 2.23353 
642 0.0014 0.0014 0 -1.07349e-10 -1.07349e-10 1.96867e-11 6.90238e-05 0.0217338 0.0193696 
682 0 0 0 0 0 0 0 0 0 
722 0 0 0 0 0 0 0 0 0 
762 0 0 0 0 0 0 0 0 0 
802 0 0 0 0 0 0 0 0 0 
842 0 0 0 0 0 0 0 0 0 
882 0 0 0 0 0 0 0 0 0 
922 0 0 0 0 0 0 0 0 0 
962 0.001 0.001 0 -1.66188e-11 -1.66188e-11 4.21463e-11 3.52624e-05 0.0170278 0.0153322 
1002 0.3824 0.3824 0 2.64202e-07 2.64202e-07 7.81513e-10 0.0014586 2.14841 2.13853 
1042 0.3942 0.3942 0 2.73587e-07 2.73587e-07 -7.10685e-10 0.00151526 2.24445 2.2324 
1082 0.4062 0.4062 0 2.83539e-07 2.83539e-07 4.29871e-09 0.00156162 2.32585 2.31826 
1122 0.3866 0.3866 0 2.7021e-07 2.7021e-07 3.78252e-10 0.00148457 2.20912 2.20163 
1162 0.4176 0.4176 0 2.89688e-07 2.89688e-07 -1.24196e-09 0.00159718 2.37462 2.36612 
1202 0.4006 0.4006 0 2.79731e-07 2.79731e-07 -1.96887e-09 0.00154505 2.33056 2.32392 
1242 0.3982 0.3982 0 2.76556e-07 2.76556e-07 2.39266e-10 0.00151098 2.27051 2.26485 
3 0.187 0.187 0 1.52889e-07 1.52889e-07 -1.08139e-10 0.0109558 11.2592 11.2945 
43 5.4822 5.4822 0 6.37378e-06 6.37378e-06 3.15015e-09 0.0637378 33.2469 33.0812 
83 5.5318 5.5318 0 6.4451e-06 6.4451e-06 5.91514e-09 0.064451 33.598 33.4487 
123 5.4906 5.4906 0 6.38794e-06 6.38794e-06 4.46295e-09 0.0638794 33.2055 33.0721 
163 5.5404 5.5404 0 6.46194e-06 6.46194e-06 -2.73645e-09 0.0646194 33.456 33.3508 
203 5.51 5.51 0 6.44615e-06 6.44615e-06 1.17972e-08 0.0644615 33.3081 33.1813 
243 5.5378 5.5378 0 6.45109e-06 6.45109e-06 -9.84553e-09 0.0645109 33.3204 33.1754 
283 5.533 5.533 0 6.44638e-06 6.44638e-06 -1.46323e-09 0.0644638 33.6456 33.5242 
323 0.46 0.46 0 4.94999e-07 4.94999e-07 1.58722e-09 0.0484119 29.0057 28.7657 
363 0.3936 0.3936 0 2.69352e-07 2.69352e-07 2.18846e-09 0.0015173 2.22551 2.22187 
403 0.3848 0.3848 0 2.65551e-07 2.65551e-07 1.92422e-09 0.00149596 2.19483 2.1836 
443 0.3966 0.3966 0 2.74704e-07 2.74704e-07 6.63147e-09 0.00151179 2.25204 2.24406 
483 0.4054 0.4054 0 2.8262e-07 2.8262e-07 4.74453e-10 0.00154477 2.35872 2.3509 
523 0.386 0.386 0 2.60847e-07 2.60847e-07 7.31792e-10 0.00149617 2.13831 2.13049 
563 0.3916 0.3916 0 2.70506e-07 2.70506e-07 7.91906e-10 0.00148888 2.21968 2.20877 
603 0.3958 0.3958 0 2.75523e-07 2.75523e-07 -3.3122e-09 0.00152905 2.26198 2.25352 
643 0.0002 0.0002 0 -1.64729e-11 -1.64729e-11 3.44514e-11 9.10368e-06 0.00437512 0.00501105 
683 0 0 0 0 0 0 0 0 0 
723 0 0 0 0 0 0 0 0 0 
763 0 0 0 0 0 0 0 0 0 
803 0 0 0 0 0 0 0 0 0 
843 0 0 0 0 0 0 0 0 0 
883 0 0 0 0 0 0 0 0 0 
923 0 0 0 0 0 0 0 0 0 
963 0.0016 0.0016 0 -1.52919e-10 -1.52919e-10 -1.47941e-10 6.9203e-05 0.0183733 0.0207223 
1003 0.3912 0.3912 0 2.67923e-07 2.67923e-07 -4.60615e-10 0.0014798 2.1715 2.15415 
1043 0.392 0.392 0 2.6679e-07 2.6679e-07 -5.86812e-10 0.00148579 2.18591 2.17867 
1083 0.3958 0.3958 0 2.75827e-07 2.75827e-07 -2.12056e-09 0.00152073 2.25093 2.24371 
1123 0.404 0.404 0 2.77954e-07 2.77954e-07 5.23994e-10 0.00156807 2.28267 2.28069 
1163 0.3926 0.3926 0 2.69372e-07 2.69372e-07 -4.29115e-10 0.00152838 2.20593 2.19196 
1203 0.3762 0.3762 0 2.55578e-07 2.55578e-07 1.29214e-09 0.00143246 2.09976 2.09112 
1243 0.4072 0.4072 0 2.79791e-07 2.79791e-07 3.07088e-09 0.00155402 2.29647 2.28138 
4 0.225 0.225 0 1.9611e-07 1.9611e-07 -4.34173e-11 0.0147296 14.202 14.139 
44 5.5558 5.5558 0 6.46197e-06 6.46197e-06 -1.04697e-08 0.0646197 33.6968 33.5564 
84 5.4684 5.4684 0 6.37443e-06 6.37443e-06 4.4725e-09 0.0637443 33.0756 32.9508 
124 5.5822 5.5822 0 6.50016e-06 6.50016e-06 2.75209e-10 0.0650016 33.9766 33.8278 
164 5.5002 5.5002 0 6.40488e-06 6.40488e-06 6.88057e-10 0.0640488 33.3162 33.1753 
204 5.587 5.587 0 6.50776e-06 6.50776e-06 8.73261e-09 0.0650776 33.9212 33.7723 
244 5.5658 5.5658 0 6.48094e-06 6.48094e-06 1.12052e-08 0.0648094 33.6317 33.5282 
284 5.54 5.54 0 6.46583e-06 6.46583e-06 1.70553e-09 0.0646583 33.4991 33.3329 
324 0.4506 0.4506 0 4.69925e-07 4.69925e-07 3.24847e-09 0.0448383 27.6444 27.5764 
364 0.3928 0.3928 0 2.64373e-07 2.64373e-07 4.79847e-10 0.00150361 2.18113 2.17333 
404 0.4008 0.4008 0 2.7581e-07 2.7581e-07 -1.53783e-09 0.00154714 2.28511 2.27488 
444 0.3882 0.3882 0 2.69219e-07 2.69219e-07 -2.54154e-09 0.00151874 2.25293 2.23914 
484 0.3932 0.3932 0 2.69031e-07 2.69031e-07 -6.16579e-10 0.00150151 2.22218 2.20726 
524 0.3968 0.3968 0 2.71473e-07 2.71473e-07 -2.73137e-09 0.00152614 2.24036 2.23428 
564 0.3992 0.3992 0 2.73783e-07 2.73783e-07 -7.26437e-10 0.00153478 2.2798 2.25998 
604 0.4002 0.4002 0 2.78285e-07 2.78285e-07 -3.87969e-10 0.00153512 2.30014 2.28774 
644 0.0018 0.0018 0 -3.21804e-10 -3.21804e-10 -4.50988e-12 8.63424e-05 0.0142567 0.00877442 
684 0 0 0 0 0 0 0 0 0 
724 0 0 0 0 0 0 0 0 0 
764 0 0 0 0 0 0 0 0 0 
804 0 0 0 0 0 0 0 0 0 
844 0 0 0 0 0 0 0 0 0 
884 0 0 0 0 0 0 0 0 0 
924 0 0 0 0 0 0 0 0 0 
964 0.0016 0.0016 0 3.42139e-12 3.42139e-12 1.10235e-10 6.5388e-05 0.0234009 0.021736 
1004 0.3806 0.3806 0 2.60301e-07 2.60301e-07 1.89989e-09 0.0014521 2.1577 2.1522 
1044 0.4026 0.4026 0 2.81065e-07 2.81065e-07 1.3423e-09 0.00151996 2.29493 2.28004 
1084 0.396 0.396 0 2.73935e-07 2.73935e-07 1.0078e-09 0.00153866 2.25693 2.24098 
1124 0.3944 0.3944 0 2.74382e-07 2.74382e-07 -3.03331e-10 0.00152635 2.27695 2.27766 
1164 0.4066 0.4066 0 2.79655e-07 2.79655e-07 -9.89559e-10 0.00155914 2.31849 2.3073 
1204 0.4096 0.4096 0 2.83364e-07 2.83364e-07 -8.75244e-10 0.00159448 2.33621 2.31975 
1244 0.3942 0.3942 0 2.72001e-07 2.72001e-07 3.04765e-09 0.001512 2.25223 2.24202 
5 0.2844 0.2844 0 2.55076e-07 2.55076e-07 -1.23925e-10 0.0206438 17.5577 17.4614 
45 5.5612 5.5612 0 6.48147e-06 6.48147e-06 4.11467e-09 0.0648147 33.8139 33.6358 
85 5.5312 5.5312 0 6.46205e-06 6.46205e-06 2.78292e-09 0.0646205 33.3899 33.2333 
125 5.5104 5.5104 0 6.4104e-06 6.4104e-06 -9.98665e-10 0.064104 33.4582 33.3453 
165 5.5406 5.5406 0 6.45435e-06 6.45435e-06 4.56899e-09 0.0645435 33.4922 33.3257 
205 5.549 5.549 0 6.47428e-06 6.47428e-06 8.19341e-09 0.0647428 33.4894 33.3335 
245 5.5202 5.5202 0 6.44083e-06 6.44083e-06 -6.8582e-09 0.0644083 33.3861 33.2608 
285 5.5104 5.5104 0 6.43221e-06 6.43221e-06 -5.89118e-09 0.0643221 33.4912 33.3633 
325 0.4034 0.4034 0 4.05956e-07 4.05956e-07 -3.31141e-09 0.0378114 25.1641 25.0156 
365 0.389 0.389 0 2.63116e-07 2.63116e-07 2.97333e-09 0.0014977 2.15166 2.13756 
405 0.3872 0.3872 0 2.68445e-07 2.68445e-07 1.4374e-09 0.00149749 2.20158 2.19598 
445 0.3938 0.3938 0 2.74516e-07 2.74516e-07 -2.06905e-09 0.00151772 2.24881 2.2504 
485 0.3956 0.3956 0 2.75016e-07 2.75016e-07 -2.76367e-09 0.00152475 2.24811 2.24046 
525 0.3854 0.3854 0 2.72165e-07 2.72165e-07 -2.21336e-09 0.00146262 2.21978 2.21027 
565 0.3964 0.3964 0 2.70711e-07 2.70711e-07 2.77537e-09 0.00151822 2.19669 2.17687 
605 0.3926 0.3926 0 2.68693e-07 2.68693e-07 4.66833e-10 0.00148276 2.22329 2.2034 
645 0.0002 0.0002 0 -2.04958e-11 -2.04958e-11 3.48616e-12 8.53325e-06 0.00506669 0.00785547 
685 0 0 0 0 0 0 0 0 0 
725 0 0 0 0 0 0 0 0 0 
765 0 0 0 0 0 0 0 0 0 
805 0 0 0 0 0 0 0 0 0 
845 0 0 0 0 0 0 0 0 0 
885 0 0 0 0 0 0 0 0 0 
925 0 0 0 0 0 0 0 0 0 
965 0.0008 0.0008 0 4.28293e-11 4.28293e-11 -5.45015e-11 4.55837e-05 0.0111591 0.0152365 
1005 0.3992 0.3992 0 2.81727e-07 2.81727e-07 8.21756e-10 0.00151298 2.31549 2.3049 
1045 0.4102 0.4102 0 2.76612e-07 2.76612e-07 2.86e-09 0.0015671 2.28341 2.27121 
1085 0.3972 0.3972 0 2.73485e-07 2.73485e-07 -9.958e-10 0.00154015 2.21843 2.20877 
1125 0.4 0.4 0 2.79724e-07 2.79724e-07 5.03535e-10 0.00153416 2.31078 2.30193 
1165 0.4218 0.4218 0 2.96278e-07 2.96278e-07 -4.51743e-10 0.00161106 2.44756 2.43517 
1205 0.3888 0.3888 0 2.68029e-07 2.68029e-07 1.24834e-09 0.0014781 2.22103 2.20604 
1245 0.3986 0.3986 0 2.7709e-07 2.7709e-07 3.9008e-09 0.00155641 2.27553 2.25278 
6 0.3358 0.3358 0 3.13778e-07 3.13778e-07 1.62408e-09 0.027061 20.6001 20.498 
46 5.536 5.536 0 6.43993e-06 6.43993e-06 7.07191e-09 0.0643993 33.7564 33.6328 
86 5.5068 5.5068 0 6.40866e-06 6.40866e-06 -8.16565e-09 0.0640866 33.4001 33.2432 
126 5.5954 5.5954 0 6.51181e-06 6.51181e-06 4.11922e-09 0.0651181 33.791 33.6588 
166 5.52 5.52 0 6.43583e-06 6.43583e-06 3.08393e-09 0.0643583 33.6094 33.437 
206 5.6096 5.6096 0 6.52826e-06 6.52826e-06 8.54102e-09 0.0652826 34.1902 34.0641 
246 5.579 5.579 0 6.49935e-06 6.49935e-06 -7.74832e-09 0.0649935 33.7882 33.6361 
286 5.5072 5.5072 0 6.41748e-06 6.41748e-06 1.31513e-08 0.0641748 33.4378 33.2904 
326 0.3708 0.3708 0 3.62497e-07 3.62497e-07 6.0028e-10 0.0329952 22.8665 22.765 
366 0.4072 0.4072 0 2.80232e-07 2.80232e-07 -1.03492e-09 0.00156059 2.28081 2.2777 
406 0.4042 0.4042 0 2.82884e-07 2.82884e-07 -1.55326e-09 0.00156105 2.34613 2.34475 
446 0.3954 0.3954 0 2.70428e-07 2.70428e-07 -2.43769e-09 0.00152921 2.22629 2.21763 
486 0.3974 0.3974 0 2.73907e-07 2.73907e-07 2.62118e-10 0.00152881 2.27922 2.26661 
526 0.396 0.396 0 2.78278e-07 2.78278e-07 -6.42151e-10 0.00149911 2.27747 2.27079 
566 0.3978 0.3978 0 2.69041e-07 2.69041e-07 1.72322e-10 0.00152107 2.21147 2.20883 
606 0.405 0.405 0 2.82301e-07 2.82301e-07 -5.38581e-10 0.00154993 2.31251 2.30158 
646 0.0004 0.0004 0 -8.52092e-11 -8.52092e-11 3.07832e-12 1.59546e-05 0.0019771 0.000587071 
686 0 0 0 0 0 0 0 0 0 
726 0 0 0 0 0 0 0 0 0 
766 0 0 0 0 0 0 0 0 0 
806 0 0 0 0 0 0 0 0 0 
846 0 0 0 0 0 0 0 0 0 
886 0 0 0 0 0 0 0 0 0 
926 0 0 0 0 0 0 0 0 0 
966 0.0032 0.0032 0 9.22289e-10 9.22289e-10 4.24366e-11 0.000133719 0.0988081 0.0938224 
1006 0.3858 0.3858 0 2.72737e-07 2.72737e-07 -3.71253e-09 0.00147633 2.24727 2.24086 
1046 0.3958 0.3958 0 2.72384e-07 2.72384e-07 -1.37738e-09 0.0015153 2.21999 2.21215 
1086 0.4036 0.4036 0 2.79528e-07 2.79528e-07 -1.55171e-09 0.00156606 2.32213 2.31211 
1126 0.3984 0.3984 0 2.81175e-07 2.81175e-07 3.53796e-10 0.00153185 2.31493 2.31134 
1166 0.4026 0.4026 0 2.78199e-07 2.78199e-07 1.28761e-09 0.00156005 2.27255 2.25979 
1206 0.3976 0.3976 0 2.71799e-07 2.71799e-07 -1.18103e-10 0.0015239 2.2475 2.24694 
1246 0.4058 0.4058 0 2.77953e-07 2.77953e-07 -2.9483e-10 0.00156287 2.30165 2.29719 
7 0.362 0.362 0 3.52601e-07 3.52601e-07 1.71535e-09 0.0318366 22.2441 22.0686 
47 5.5504 5.5504 0 6.46904e-06 6.46904e-06 -5.35131e-09 0.0646904 33.7395 33.5745 
87 5.525 5.525 0 6.44894e-06 6.44894e-06 -1.49616e-08 0.0644894 33.4445 33.3202 
127 5.5208 5.5208 0 6.44434e-06 6.44434e-06 -6.91886e-09 0.0644434 33.5261 33.3888 
167 5.5348 5.5348 0 6.43989e-06 6.43989e-06 -2.50773e-09 0.0643989 33.3235 33.2049 
207 5.5398 5.5398 0 6.45922e-06 6.45922e-06 1.89769e-09 0.0645922 33.488 33.3089 
247 5.5396 5.5396 0 6.46096e-06 6.46096e-06 2.93456e-09 0.0646096 33.4838 33.318 
287 5.5396 5.5396 0 6.45009e-06 6.45009e-06 -4.43216e-09 0.0645009 33.7139 33.5632 
327 0.3192 0.3192 0 3.00911e-07 3.00911e-07 2.83055e-10 0.0257442 20.1661 19.9887 
367 0.3808 0.3808 0 2.588e-07 2.588e-07 2.34121e-10 0.00147577 2.15438 2.14552 
407 0.406 0.406 0 2.85094e-07 2.85094e-07 -3.07837e-09 0.00155944 2.30125 2.28881 
447 0.3906 0.3906 0 2.69962e-07 2.69962e-07 -3.98324e-10 0.00151751 2.23075 2.22537 
487 0.388 0.388 0 2.69294e-07 2.69294e-07 -8.72373e-10 0.00147469 2.20003 2.19644 
527 0.3952 0.3952 0 2.75748e-07 2.75748e-07 -7.62373e-10 0.00151209 2.26536 2.25727 
567 0.381 0.381 0 2.60634e-07 2.60634e-07 6.02537e-10 0.00145952 2.14991 2.13739 
607 0.411 0.411 0 2.88095e-07 2.88095e-07 2.60301e-09 0.00158653 2.35998 2.34528 
647 0.0002 0.0002 0 -5.37112e-11 -5.37112e-11 -1.24903e-11 6.9596e-06 -0.000409075 -0.00178844 
687 0 0 0 0 0 0 0 0 0 
727 0 0 0 0 0 0 0 0 0 
767 0 0 0 0 0 0 0 0 0 
807 0 0 0 0 0 0 0 0 0 
847 0 0 0 0 0 0 0 0 0 
887 0 0 0 0 0 0 0 0 0 
927 0 0 0 0 0 0 0 0 0 
967 0.0044 0.0044 0 1.30612e-09 1.30612e-09 -5.41943e-11 0.000178061 0.138999 0.134542 
1007 0.4038 0.4038 0 2.82192e-07 2.82192e-07 -1.86596e-09 0.00156015 2.32181 2.31215 
1047 0.4012 0.4012 0 2.79959e-07 2.79959e-07 1.87035e-09 0.00154877 2.30024 2.29849 
1087 0.3816 0.3816 0 2.63069e-07 2.63069e-07 4.97577e-10 0.00146161 2.13354 2.12195 
1127 0.3922 0.3922 0 2.76823e-07 2.76823e-07 3.84319e-10 0.00150897 2.26201 2.25303 
1167 0.392 0.392 0 2.69036e-07 2.69036e-07 2.34129e-10 0.00151079 2.18003 2.18015 
1207 0.3978 0.3978 0 2.72492e-07 2.72492e-07 2.83749e-09 0.00152997 2.22385 2.21916 
1247 0.3974 0.3974 0 2.75089e-07 2.75089e-07 9.76524e-10 0.00152937 2.2909 2.28296 
8 0.3974 0.3974 0 3.99847e-07 3.99847e-07 -4.03805e-10 0.0375075 24.2923 24.2429 
48 5.5502 5.5502 0 6.45404e-06 6.45404e-06 -7.71213e-09 0.0645404 33.6948 33.5194 
88 5.4722 5.4722 0 6.36353e-06 6.36353e-06 1.13101e-08 0.0636353 33.0828 32.9678 
128 5.5342 5.5342 0 6.44508e-06 6.44508e-06 5.06763e-09 0.0644508 33.5066 33.3946 
168 5.5086 5.5086 0 6.41725e-06 6.41725e-06 -4.30359e-09 0.0641725 33.0572 32.9149 
208 5.4524 5.4524 0 6.34289e-06 6.34289e-06 3.8633e-09 0.0634289 33.3029 33.163 
248 5.5072 5.5072 0 6.42395e-06 6.42395e-06 6.66427e-09 0.0642395 33.3469 33.2171 
288 5.5588 5.5588 0 6.46594e-06 6.46594e-06 6.21444e-10 0.0646594 33.8437 33.695 
328 0.2802 0.2802 0 2.48333e-07 2.48333e-07 -4.12925e-10 0.0208097 17.1889 17.0364 
368 0.406 0.406 0 2.77082e-07 2.77082e-07 1.2444e-09 0.0015637 2.27845 2.26938 
408 0.4008 0.4008 0 2.70213e-07 2.70213e-07 3.16239e-10 0.00153784 2.23964 2.24694 
448 0.3956 0.3956 0 2.70817e-07 2.70817e-07 4.72517e-11 0.00151231 2.27207 2.2656 
488 0.404 0.404 0 2.7454e-07 2.7454e-07 2.79566e-09 0.00154451 2.24285 2.23402 
528 0.3904 0.3904 0 2.71416e-07 2.71416e-07 1.40619e-09 0.00151121 2.24338 2.23655 
568 0.3958 0.3958 0 2.73369e-07 2.73369e-07 -3.08485e-09 0.00153454 2.23246 2.22317 
608 0.4066 0.4066 0 2.78635e-07 2.78635e-07 -5.04902e-10 0.00154891 2.28721 2.28334 
648 0.0006 0.0006 0 -9.54492e-11 -9.54492e-11 -6.28784e-11 1.46224e-05 0.00303407 0.00361326 
688 0 0 0 0 0 0 0 0 0 
728 0 0 0 0 0 0 0 0 0 
768 0 0 0 0 0 0 0 0 0 
808 0 0 0 0 0 0 0 0 0 
848 0 0 0 0 0 0 0 0 0 
888 0 0 0 0 0 0 0 0 0 
928 0 0 0 0 0 0 0 0 0 
968 0.0102 0.0102 0 5.98256e-09 5.98256e-09 4.69445e-11 0.000392286 0.511016 0.501757 
1008 0.3844 0.3844 0 2.67535e-07 2.67535e-07 2.73566e-09 0.00147532 2.19585 2.18231 
1048 0.3846 0.3846 0 2.61747e-07 2.61747e-07 -8.55431e-11 0.001467 2.14594 2.13809 
1088 0.4062 0.4062 0 2.80092e-07 2.80092e-07 -3.51841e-09 0.00155165 2.3122 2.29792 
1128 0.399 0.399 0 2.76519e-07 2.76519e-07 -1.96621e-09 0.00153918 2.26908 2.25366 
1168 0.4092 0.4092 0 2.86714e-07 2.86714e-07 -2.63806e-10 0.00155611 2.36977 2.35397 
1208 0.4114 0.4114 0 2.77575e-07 2.77575e-07 -1.13622e-09 0.00161032 2.27711 2.27286 
1248 0.4048 0.4048 0 2.73182e-07 2.73182e-07 2.2377e-09 0.00156983 2.25194 2.24293 
9 0.448 0.448 0 4.65944e-07 4.65944e-07 -4.01797e-11 0.0449617 27.1841 27.0986 
49 5.5084 5.5084 0 6.4197e-06 6.4197e-06 -1.0095e-08 0.064197 33.4206 33.2481 
89 5.5916 5.5916 0 6.52195e-06 6.52195e-06 2.29636e-09 0.0652195 33.8202 33.6776 
129 5.5754 5.5754 0 6.50393e-06 6.50393e-06 6.08952e-09 0.0650393 33.7289 33.5928 
169 5.571 5.571 0 6.49845e-06 6.49845e-06 2.81155e-09 0.0649845 33.9793 33.8338 
209 5.5492 5.5492 0 6.45725e-06 6.45725e-06 5.44466e-09 0.0645725 33.5383 33.4042 
249 5.5432 5.5432 0 6.46139e-06 6.46139e-06 -2.02439e-09 0.0646139 33.4834 33.3339 
289 5.537 5.537 0 6.46387e-06 6.46387e-06 4.2266e-09 0.0646387 33.6963 33.5544 
329 0.2464 0.2464 0 2.11479e-07 2.11479e-07 9.84014e-10 0.0161559 14.8456 14.8358 
369 0.3858 0.3858 0 2.63833e-07 2.63833e-07 1.04457e-10 0.0014722 2.16986 2.1603 
409 0.3966 0.3966 0 2.76251e-07 2.76251e-07 1.33057e-09 0.00153911 2.26152 2.25307 
449 0.3938 0.3938 0 2.687e-07 2.687e-07 -3.67942e-10 0.0015012 2.2069 2.20138 
489 0.3864 0.3864 0 2.68048e-07 2.68048e-07 1.76716e-09 0.00146863 2.20533 2.19276 
529 0.391 0.391 0 2.7417e-07 2.7417e-07 1.6982e-09 0.00150371 2.26681 2.25507 
569 0.3842 0.3842 0 2.65815e-07 2.65815e-07 2.4106e-09 0.00149351 2.20005 2.19202 
609 0.4056 0.4056 0 2.85068e-07 2.85068e-07 4.67718e-10 0.00157293 2.34773 2.33977 
649 0.0004 0.0004 0 -3.57029e-11 -3.57029e-11 1.48352e-11 8.6926e-06 0.00628801 0.00705945 
689 0 0 0 0 0 0 0 0 0 
729 0 0 0 0 0 0 0 0 0 
769 0 0 0 0 0 0 0 0 0 
809 0 0 0 0 0 0 0 0 0 
849 0 0 0 0 0 0 0 0 0 
889 0 0 0 0 0 0 0 0 0 
929 0 0 0 0 0 0 0 0 0 
969 0.027 0.027 0 1.74443e-08 1.74443e-08 -4.37523e-10 0.000977791 1.57683 1.59213 
1009 0.3888 0.3888 0 2.71932e-07 2.71932e-07 3.29152e-09 0.0014684 2.22853 2.22089 
1049 0.415 0.415 0 2.88259e-07 2.88259e-07 1.16373e-09 0.00157662 2.35985 2.34321 
1089 0.3912 0.3912 0 2.7444e-07 2.7444e-07 -3.38757e-09 0.0014904 2.2741 2.26968 
1129 0.3972 0.3972 0 2.72754e-07 2.72754e-07 6.78071e-10 0.00152532 2.23629 2.22251 
1169 0.3976 0.3976 0 2.7409e-07 2.7409e-07 1.83702e-09 0.00152179 2.23023 2.22081 
1209 0.3964 0.3964 0 2.75418e-07 2.75418e-07 -3.37231e-09 0.00153236 2.27023 2.26831 
1249 0.3822 0.3822 0 2.60471e-07 2.60471e-07 -2.16773e-09 0.00147645 2.17528 2.15931 
10 0.455 0.455 0 4.9262e-07 4.9262e-07 1.51058e-09 0.0483734 27.8826 27.7799 
50 5.6122 5.6122 0 6.54478e-06 6.54478e-06 1.13366e-09 0.0654478 34.0303 33.8635 
90 5.556 5.556 0 6.45571e-06 6.45571e-06 2.878e-10 0.0645571 33.8533 33.7199 
130 5.5282 5.5282 0 6.43183e-06 6.43183e-06 -5.52205e-09 0.0643183 33.5397 33.426 
170 5.5034 5.5034 0 6.42056e-06 6.42056e-06 -1.56176e-08 0.0642056 33.4522 33.3185 
210 5.5368 5.5368 0 6.45265e-06 6.45265e-06 3.44828e-10 0.0645265 33.6325 33.4884 
250 5.5294 5.5294 0 6.44591e-06 6.44591e-06 -7.59862e-09 0.0644591 33.41 33.2716 
290 5.5592 5.5592 0 6.4824e-06 6.4824e-06 -4.67146e-09 0.064824 33.5219 33.373 
330 0.1838 0.1838 0 1.50014e-07 1.50014e-07 -1.17545e-09 0.0107535 11.1378 11.0671 
370 0.4058 0.4058 0 2.74956e-07 2.74956e-07 1.36418e-09 0.00154622 2.27213 2.25462 
410 0.4122 0.4122 0 2.84162e-07 2.84162e-07 4.48578e-09 0.00157401 2.31871 2.31012 
450 0.3968 0.3968 0 2.75513e-07 2.75513e-07 4.7722e-10 0.00152309 2.2835 2.28209 
490 0.3852 0.3852 0 2.69054e-07 2.69054e-07 -3.45164e-11 0.00146879 2.19297 2.18747 
530 0.3856 0.3856 0 2.6748e-07 2.6748e-07 -1.03017e-10 0.00148429 2.1633 2.15545 
570 0.4026 0.4026 0 2.80241e-07 2.80241e-07 2.2532e-09 0.00155038 2.33507 2.32247 
610 0.3844 0.3844 0 2.61842e-07 2.61842e-07 -3.13193e-09 0.00148824 2.15074 2.14887 
650 0 0 0 0 0 0 0 0 0 
690 0 0 0 0 0 0 0 0 0 
730 0 0 0 0 0 0 0 0 0 
770 0 0 0 0 0 0 0 0 0 
810 0 0 0 0 0 0 0 0 0 
850 0 0 0 0 0 0 0 0 0 
890 0 0 0 0 0 0 0 0 0 
930 0 0 0 0 0 0 0 0 0 
970 0.1016 0.1016 0 7.08895e-08 7.08895e-08 1.03286e-09 0.00153691 2.3153 2.30195 
1010 0.399 0.399 0 2.77897e-07 2.77897e-07 2.89292e-10 0.00154509 2.29264 2.28397 
1050 0.3916 0.3916 0 2.66525e-07 2.66525e-07 -3.05316e-10 0.0015061 2.20719 2.19834 
1090 0.4038 0.4038 0 2.7883e-07 2.7883e-07 1.5064e-09 0.00156694 2.30046 2.29128 
1130 0.405 0.405 0 2.79413e-07 2.79413e-07 -2.41979e-09 0.00154438 2.29893 2.29648 
1170 0.3986 0.3986 0 2.73617e-07 2.73617e-07 2.08103e-09 0.00154796 2.2477 2.2285 
1210 0.3936 0.3936 0 2.73052e-07 2.73052e-07 1.02579e-09 0.00151756 2.2543 2.25678 
1250 0.3992 0.3992 0 2.78377e-07 2.78377e-07 1.1833e-09 0.00153532 2.24308 2.22625 
11 0.486 0.486 0 5.38254e-07 5.38254e-07 4.44817e-10 0.0534019 30.3522 30.1376 
51 5.5248 5.5248 0 6.43408e-06 6.43408e-06 6.88144e-09 0.0643408 33.465 33.3232 
91 5.5538 5.5538 0 6.47688e-06 6.47688e-06 -1.3657e-09 0.0647688 33.6809 33.5587 
131 5.522 5.522 0 6.43405e-06 6.43405e-06 3.77292e-09 0.0643405 33.4719 33.3559 
171 5.4798 5.4798 0 6.38656e-06 6.38656e-06 -5.31817e-09 0.0638656 32.9773 32.8538 
211 5.4978 5.4978 0 6.4028e-06 6.4028e-06 -1.47077e-09 0.064028 33.3979 33.2597 
251 5.4876 5.4876 0 6.39384e-06 6.39384e-06 -5.88798e-09 0.0639384 33.4726 33.3562 
291 5.5056 5.5056 0 6.41756e-06 6.41756e-06 -5.29122e-09 0.0641756 33.4356 33.285 
331 0.1382 0.1382 0 1.07809e-07 1.07809e-07 1.06298e-09 0.00725755 8.32318 8.27624 
371 0.4028 0.4028 0 2.80863e-07 2.80863e-07 -1.79859e-10 0.0015553 2.29617 2.29268 
411 0.4108 0.4108 0 2.82661e-07 2.82661e-07 -2.33044e-09 0.00156529 2.33371 2.32956 
451 0.3992 0.3992 0 2.7751e-07 2.7751e-07 -2.21988e-09 0.0015407 2.30523 2.29825 
491 0.38 0.38 0 2.61992e-07 2.61992e-07 2.21009e-10 0.00145576 2.15584 2.1414 
531 0.4032 0.4032 0 2.81114e-07 2.81114e-07 -5.41695e-10 0.00156349 2.33662 2.32344 
571 0.3924 0.3924 0 2.78652e-07 2.78652e-07 7.64899e-10 0.0015037 2.23392 2.22128 
611 0.4018 0.4018 0 2.7868e-07 2.7868e-07 2.61714e-09 0.0015613 2.29976 2.29209 
651 0 0 0 0 0 0 0 0 0 
691 0 0 0 0 0 0 0 0 0 
731 0 0 0 0 0 0 0 0 0 
771 0 0 0 0 0 0 0 0 0 
811 0 0 0 0 0 0 0 0 0 
851 0 0 0 0 0 0 0 0 0 
891 0 0 0 0 0 0 0 0 0 
931 0 0 0 0 0 0 0 0 0 
971 0.0978 0.0978 0 6.77189e-08 6.77189e-08 2.14767e-09 0.00150684 2.22217 2.20506 
1011 0.388 0.388 0 2.72225e-07 2.72225e-07 1.19429e-09 0.00149567 2.2475 2.2389 
1051 0.4014 0.4014 0 2.8362e-07 2.8362e-07 -3.97589e-10 0.00154112 2.3237 2.31066 
1091 0.3938 0.3938 0 2.71362e-07 2.71362e-07 1.09123e-09 0.00150829 2.21719 2.21152 
1131 0.4024 0.4024 0 2.74072e-07 2.74072e-07 3.04114e-09 0.00153864 2.22556 2.21346 
1171 0.3932 0.3932 0 2.66709e-07 2.66709e-07 3.52251e-10 0.00152861 2.20541 2.20761 
1211 0.3926 0.3926 0 2.7646e-07 2.7646e-07 2.07608e-10 0.00150146 2.26866 2.259 
1251 0.3988 0.3988 0 2.75881e-07 2.75881e-07 4.27072e-10 0.00154918 2.28161 2.26566 
12 0.517 0.517 0 5.83254e-07 5.83254e-07 1.79566e-09 0.058543 32.1211 31.9014 
52 5.5478 5.5478 0 6.47596e-06 6.47596e-06 -1.54099e-09 0.0647596 33.7172 33.5538 
92 5.5204 5.5204 0 6.44313e-06 6.44313e-06 -1.89003e-09 0.0644313 33.3364 33.2081 
132 5.5426 5.5426 0 6.45454e-06 6.45454e-06 -1.37912e-09 0.0645454 33.4058 33.2672 
172 5.551 5.551 0 6.47739e-06 6.47739e-06 -3.27101e-09 0.0647739 33.6063 33.4479 
212 5.5616 5.5616 0 6.45797e-06 6.45797e-06 -2.52848e-10 0.0645797 33.8955 33.7398 
252 5.5318 5.5318 0 6.41738e-06 6.41738e-06 9.5553e-09 0.0641738 33.819 33.673 
292 5.5132 5.5132 0 6.40918e-06 6.40918e-06 -1.52557e-08 0.0640918 33.4161 33.273 
332 0.0944 0.0944 0 7.17294e-08 7.17294e-08 6.72603e-10 0.00429597 5.78768 5.8249 
372 0.3894 0.3894 0 2.72114e-07 2.72114e-07 5.13167e-10 0.00149587 2.21872 2.20417 
412 0.4098 0.4098 0 2.81623e-07 2.81623e-07 -3.0097e-09 0.00157434 2.30986 2.30583 
452 0.389 0.389 0 2.67921e-07 2.67921e-07 -9.03244e-10 0.00148565 2.18811 2.17977 
492 0.3876 0.3876 0 2.69396e-07 2.69396e-07 3.86119e-10 0.00148528 2.19825 2.18692 
532 0.3858 0.3858 0 2.65875e-07 2.65875e-07 -8.22697e-10 0.0014952 2.18312 2.1767 
572 0.4056 0.4056 0 2.82508e-07 2.82508e-07 -2.20397e-09 0.00156429 2.30634 2.30662 
612 0.396 0.396 0 2.76167e-07 2.76167e-07 7.2737e-10 0.0015173 2.25543 2.24372 
652 0 0 0 0 0 0 0 0 0 
692 0 0 0 0 0 0 0 0 0 
732 0 0 0 0 0 0 0 0 0 
772 0 0 0 0 0 0 0 0 0 
812 0 0 0 0 0 0 0 0 0 
852 0 0 0 0 0 0 0 0 0 
892 0 0 0 0 0 0 0 0 0 
932 0 0 0 0 0 0 0 0 0 
972 0.204 0.204 0 1.44838e-07 1.44838e-07 -1.21146e-09 0.00157134 2.38492 2.36815 
1012 0.3982 0.3982 0 2.75051e-07 2.75051e-07 -5.56903e-10 0.00153607 2.25835 2.24904 
1052 0.4056 0.4056 0 2.76309e-07 2.76309e-07 -1.20519e-09 0.00154678 2.25926 2.23854 
1092 0.396 0.396 0 2.70967e-07 2.70967e-07 -3.71157e-10 0.0015332 2.22498 2.21744 
1132 0.3792 0.3792 0 2.68468e-07 2.68468e-07 -8.8778e-11 0.00147081 2.21713 2.20732 
1172 0.408 0.408 0 2.79885e-07 2.79885e-07 -8.19849e-10 0.00157874 2.28913 2.28097 
1212 0.3896 0.3896 0 2.66483e-07 2.66483e-07 7.62801e-10 0.0014869 2.1895 2.17775 
1252 0.3988 0.3988 0 2.75652e-07 2.75652e-07 -2.41013e-09 0.00150752 2.2421 2.23474 
13 0.5286 0.5286 0 6.0361e-07 6.0361e-07 1.63773e-09 0.0611156 32.5723 32.5951 
53 5.4638 5.4638 0 6.36274e-06 6.36274e-06 -6.4439e-09 0.0636274 33.1899 33.0643 
93 5.5922 5.5922 0 6.51019e-06 6.51019e-06 -8.46184e-10 0.0651019 34.1075 33.9458 
133 5.61 5.61 0 6.53387e-06 6.53387e-06 -9.19684e-09 0.0653387 33.9707 33.8065 
173 5.5394 5.5394 0 6.4467e-06 6.4467e-06 -3.73877e-09 0.064467 33.3856 33.2771 
213 5.5592 5.5592 0 6.47831e-06 6.47831e-06 -6.54862e-09 0.0647831 33.6535 33.5276 
253 5.4666 5.4666 0 6.34859e-06 6.34859e-06 -3.41099e-10 0.0634859 33.3297 33.2032 
293 5.5486 5.5486 0 6.48257e-06 6.48257e-06 -5.7271e-09 0.0648257 33.8158 33.6338 
333 0.0574 0.0574 0 3.83227e-08 3.83227e-08 1.51655e-09 0.00226716 3.15507 3.18744 
373 0.3904 0.3904 0 2.6739e-07 2.6739e-07 -9.54424e-10 0.00149306 2.20181 2.19162 
413 0.3856 0.3856 0 2.6654e-07 2.6654e-07 -5.23381e-10 0.00148206 2.18126 2.17067 
453 0.4064 0.4064 0 2.78943e-07 2.78943e-07 -2.8851e-09 0.00156796 2.2931 2.28446 
493 0.3848 0.3848 0 2.61702e-07 2.61702e-07 1.7445e-09 0.0014756 2.1302 2.12512 
533 0.3962 0.3962 0 2.73252e-07 2.73252e-07 2.08912e-09 0.00150565 2.23594 2.22937 
573 0.4112 0.4112 0 2.91729e-07 2.91729e-07 -6.44116e-10 0.0015675 2.41528 2.41494 
613 0.38 0.38 0 2.66556e-07 2.66556e-07 1.05059e-10 0.00143906 2.20496 2.1988 
653 0 0 0 0 0 0 0 0 0 
693 0 0 0 0 0 0 0 0 0 
733 0 0 0 0 0 0 0 0 0 
773 0 0 0 0 0 0 0 0 0 
813 0 0 0 0 0 0 0 0 0 
853 0 0 0 0 0 0 0 0 0 
893 0 0 0 0 0 0 0 0 0 
933 0 0 0 0 0 0 0 0 0 
973 0.387 0.387 0 2.65345e-07 2.65345e-07 -2.92203e-09 0.00146627 2.19405 2.18391 
1013 0.4072 0.4072 0 2.86532e-07 2.86532e-07 -9.04853e-11 0.00159016 2.32829 2.31828 
1053 0.416 0.416 0 2.88317e-07 2.88317e-07 -7.89498e-10 0.00160561 2.33373 2.32481 
1093 0.3914 0.3914 0 2.69383e-07 2.69383e-07 1.19646e-09 0.00152152 2.19771 2.19195 
1133 0.3828 0.3828 0 2.64552e-07 2.64552e-07 9.10694e-10 0.00145412 2.15842 2.14736 
1173 0.4 0.4 0 2.7569e-07 2.7569e-07 4.07426e-10 0.00151798 2.27477 2.26218 
1213 0.4024 0.4024 0 2.78306e-07 2.78306e-07 -4.86205e-10 0.00155893 2.27073 2.25117 
1253 0.4092 0.4092 0 2.76919e-07 2.76919e-07 -4.89917e-10 0.00157435 2.234 2.22643 
14 0.542 0.542 0 6.20884e-07 6.20884e-07 7.71402e-10 0.0630623 33.7781 33.6259 
54 5.5736 5.5736 0 6.48729e-06 6.48729e-06 -5.09524e-09 0.0648729 33.7759 33.6655 
94 5.5296 5.5296 0 6.42626e-06 6.42626e-06 -3.37098e-10 0.0642626 33.7147 33.5787 
134 5.4898 5.4898 0 6.39228e-06 6.39228e-06 5.67912e-09 0.0639228 33.2781 33.1842 
174 5.5266 5.5266 0 6.44231e-06 6.44231e-06 2.62152e-09 0.0644231 33.5369 33.4197 
214 5.5344 5.5344 0 6.44039e-06 6.44039e-06 2.75331e-09 0.0644039 33.6613 33.5216 
254 5.5356 5.5356 0 6.44139e-06 6.44139e-06 -4.47602e-10 0.0644139 33.5716 33.4532 
294 5.5462 5.5462 0 6.46295e-06 6.46295e-06 1.21441e-09 0.0646295 33.5725 33.4425 
334 0.1056 0.1056 0 7.28204e-08 7.28204e-08 1.19397e-10 0.00162849 2.36136 2.35508 
374 0.407 0.407 0 2.84132e-07 2.84132e-07 1.63118e-09 0.00157356 2.34778 2.3344 