ITEM: TIMESTEP
20000
ITEM: NUMBER OF SURFS
1272
ITEM: BOX BOUNDS oo rr pp
0 0.3
0 0.3
-0.5 0.5
ITEM: SURFS id f_4[1] f_4[2] f_4[3] f_4[4] f_4[5] f_4[6] f_4[7] f_4[8] f_4[9] 
1 0.0998 0.0998 0 6.74698e-07 6.74698e-07 -3.89623e-09 0.047879 53.9137 54.2649 
41 5.698 5.698 0 6.21984e-05 6.21984e-05 -1.08064e-07 0.621984 318.405 320.796 
81 5.6974 5.6974 0 6.17198e-05 6.17198e-05 -8.54708e-08 0.617198 315.931 318.312 
121 5.6558 5.6558 0 6.10004e-05 6.10004e-05 4.71378e-08 0.610004 311.367 313.53 
161 5.6574 5.6574 0 6.08175e-05 6.08175e-05 1.37867e-07 0.608175 312.426 315.162 
201 5.6308 5.6308 0 6.05746e-05 6.05746e-05 1.07847e-07 0.605746 310.475 312.957 
241 5.5824 5.5824 0 6.04297e-05 6.04297e-05 -2.28061e-08 0.604297 308.452 311.151 
281 5.6226 5.6226 0 6.1384e-05 6.1384e-05 -1.5855e-07 0.61384 310.285 312.606 
321 0.502 0.502 0 5.42804e-06 5.42804e-06 9.68409e-09 0.543662 301.891 301.884 
361 0.4936 0.4936 0 2.96748e-06 2.96748e-06 1.16795e-08 0.0208383 24.8549 25.2315 
401 0.4694 0.4694 0 2.81162e-06 2.81162e-06 -1.85201e-09 0.0197786 23.2178 23.4812 
441 0.456 0.456 0 2.77488e-06 2.77488e-06 1.49826e-08 0.0191402 23.0291 23.3161 
481 0.4618 0.4618 0 2.83019e-06 2.83019e-06 -2.15758e-09 0.0196942 23.8036 24.0506 
521 0.4616 0.4616 0 2.93236e-06 2.93236e-06 3.7645e-08 0.0192786 24.1302 24.3834 
561 0.4428 0.4428 0 2.79397e-06 2.79397e-06 4.24371e-08 0.0182791 22.9661 23.2153 
601 0.4604 0.4604 0 2.89184e-06 2.89184e-06 -7.87901e-09 0.0195649 24.075 24.2026 
641 0.003 0.003 0 5.56476e-10 5.56476e-10 1.32531e-09 0.00149917 0.691009 0.827635 
681 0 0 0 0 0 0 0 0 0 
721 0 0 0 0 0 0 0 0 0 
761 0 0 0 0 0 0 0 0 0 
801 0 0 0 0 0 0 0 0 0 
841 0 0 0 0 0 0 0 0 0 
881 0 0 0 0 0 0 0 0 0 
921 0 0 0 0 0 0 0 0 0 
961 0.0016 0.0016 0 -9.28045e-10 -9.28045e-10 3.04419e-09 0.000797269 0.540736 0.552376 
1001 0.4426 0.4426 0 2.8313e-06 2.8313e-06 3.59587e-08 0.0185316 23.367 23.4903 
1041 0.4532 0.4532 0 2.81786e-06 2.81786e-06 1.25523e-08 0.0189015 23.3837 23.4709 
1081 0.4512 0.4512 0 2.80734e-06 2.80734e-06 6.87821e-09 0.019041 23.3163 23.4657 
1121 0.4644 0.4644 0 2.9293e-06 2.9293e-06 6.92569e-09 0.0195136 24.2455 24.3373 
1161 0.4558 0.4558 0 2.77017e-06 2.77017e-06 -1.5361e-08 0.0192692 22.9289 23.1589 
1201 0.4756 0.4756 0 2.90813e-06 2.90813e-06 -1.18768e-08 0.0198666 23.8477 24.079 
1241 0.4876 0.4876 0 2.92201e-06 2.92201e-06 1.7691e-08 0.0204269 24.0745 24.4115 
2 0.1422 0.1422 0 1.06548e-06 1.06548e-06 1.17629e-08 0.0770702 82.0638 82.243 
42 5.6362 5.6362 0 6.1318e-05 6.1318e-05 3.1281e-08 0.61318 316.285 318.101 
82 5.6612 5.6612 0 6.12982e-05 6.12982e-05 -4.80464e-08 0.612982 312.176 314.739 
122 5.6792 5.6792 0 6.13429e-05 6.13429e-05 -2.87133e-08 0.613429 310.63 313.21 
162 5.7184 5.7184 0 6.13807e-05 6.13807e-05 6.23873e-08 0.613807 316.48 319.764 
202 5.6744 5.6744 0 6.10558e-05 6.10558e-05 -3.26678e-08 0.610558 314.883 317.446 
242 5.6936 5.6936 0 6.14483e-05 6.14483e-05 4.72114e-08 0.614483 313.955 316.391 
282 5.6426 5.6426 0 6.13005e-05 6.13005e-05 -7.70782e-08 0.613005 314.154 316.403 
322 0.4764 0.4764 0 5.06409e-06 5.06409e-06 1.44536e-08 0.503733 280.081 282.11 
362 0.4802 0.4802 0 2.89105e-06 2.89105e-06 -1.51154e-08 0.0203499 23.8861 24.0654 
402 0.4662 0.4662 0 2.80931e-06 2.80931e-06 1.84449e-08 0.0197311 23.6401 23.8305 
442 0.4476 0.4476 0 2.71041e-06 2.71041e-06 -1.00797e-08 0.0188427 22.8165 23.0253 
482 0.458 0.458 0 2.79465e-06 2.79465e-06 -9.31601e-09 0.0194174 23.4564 23.6046 
522 0.4574 0.4574 0 2.85989e-06 2.85989e-06 -1.05477e-08 0.0192991 23.8691 24.0246 
562 0.4658 0.4658 0 2.90265e-06 2.90265e-06 1.4382e-08 0.0193549 24.0938 24.4389 
602 0.4416 0.4416 0 2.78215e-06 2.78215e-06 6.92457e-09 0.0185777 23.1666 23.369 
642 0.0016 0.0016 0 3.6404e-09 3.6404e-09 2.39664e-09 0.000634498 0.586777 0.553811 
682 0 0 0 0 0 0 0 0 0 
722 0.0002 0.0002 0 -5.54782e-10 -5.54782e-10 -2.75635e-10 5.54782e-06 0.00145926 0.00190215 
762 0 0 0 0 0 0 0 0 0 
802 0 0 0 0 0 0 0 0 0 
842 0.0002 0.0002 0 -4.31705e-10 -4.31705e-10 -8.20822e-10 4.31705e-06 -0.000240219 0.000842977 
882 0 0 0 0 0 0 0 0 0 
922 0.0002 0.0002 0 -5.14979e-10 -5.14979e-10 5.56889e-11 5.14979e-06 0.000600653 -0.000294298 
962 0.001 0.001 0 -4.50197e-10 -4.50197e-10 1.57388e-09 0.000592338 0.260036 0.335181 
1002 0.443 0.443 0 2.77665e-06 2.77665e-06 2.88223e-08 0.0187249 23.3323 23.4531 
1042 0.4488 0.4488 0 2.80037e-06 2.80037e-06 4.28611e-08 0.0186727 23.218 23.2794 
1082 0.4586 0.4586 0 2.9075e-06 2.9075e-06 1.45565e-08 0.0194747 24.179 24.4047 
1122 0.4532 0.4532 0 2.8361e-06 2.8361e-06 1.41128e-09 0.0191672 23.6085 23.7494 
1162 0.465 0.465 0 2.88355e-06 2.88355e-06 1.67938e-08 0.0195251 23.6125 23.789 
1202 0.4636 0.4636 0 2.77964e-06 2.77964e-06 -2.49857e-08 0.019644 22.5587 22.7103 
1242 0.4754 0.4754 0 2.82015e-06 2.82015e-06 1.23497e-08 0.0203545 23.2375 23.665 
3 0.189 0.189 0 1.47857e-06 1.47857e-06 -1.29276e-09 0.111809 109.359 110.814 
43 5.6508 5.6508 0 6.15735e-05 6.15735e-05 9.14907e-09 0.615735 316.939 319.308 
83 5.6902 5.6902 0 6.15784e-05 6.15784e-05 1.32734e-08 0.615784 315.511 317.553 
123 5.6592 5.6592 0 6.10518e-05 6.10518e-05 3.10143e-08 0.610518 312.617 315.619 
163 5.6228 5.6228 0 6.03962e-05 6.03962e-05 -4.72027e-08 0.603962 309.642 311.914 
203 5.6956 5.6956 0 6.16851e-05 6.16851e-05 1.28984e-07 0.616851 313.454 315.931 
243 5.6748 5.6748 0 6.10689e-05 6.10689e-05 -1.50623e-08 0.610689 311.594 313.925 
283 5.6668 5.6668 0 6.16457e-05 6.16457e-05 2.90791e-08 0.616457 313.761 316.177 
323 0.4626 0.4626 0 4.78161e-06 4.78161e-06 2.57912e-08 0.470325 273.559 274.827 
363 0.4644 0.4644 0 2.75909e-06 2.75909e-06 -1.60943e-08 0.0197488 22.6589 22.9981 
403 0.4646 0.4646 0 2.86328e-06 2.86328e-06 2.98835e-09 0.0195514 23.9781 24.3123 
443 0.4532 0.4532 0 2.75781e-06 2.75781e-06 6.80122e-09 0.018942 23.1447 23.3808 
483 0.454 0.454 0 2.8351e-06 2.8351e-06 7.66893e-09 0.0189677 23.6351 23.7829 
523 0.4512 0.4512 0 2.81638e-06 2.81638e-06 3.17725e-08 0.0189046 23.2885 23.404 
563 0.452 0.452 0 2.8338e-06 2.8338e-06 2.30694e-08 0.0187611 23.6478 23.7926 
603 0.4558 0.4558 0 2.81863e-06 2.81863e-06 4.10593e-08 0.019113 23.2564 23.5125 
643 0.0018 0.0018 0 1.00074e-10 1.00074e-10 1.93659e-09 0.000984013 0.580114 0.530225 
683 0 0 0 0 0 0 0 0 0 
723 0.0002 0.0002 0 -5.44112e-10 -5.44112e-10 3.77722e-10 5.44112e-06 0.00939249 0.0101456 
763 0 0 0 0 0 0 0 0 0 
803 0 0 0 0 0 0 0 0 0 
843 0.0002 0.0002 0 -2.799e-10 -2.799e-10 -5.67179e-10 2.799e-06 0.00194455 0.00112892 
883 0.0002 0.0002 0 -3.98211e-10 -3.98211e-10 -1.43406e-10 3.98211e-06 0.00616508 0.00664697 
923 0 0 0 0 0 0 0 0 0 
963 0.002 0.002 0 1.00904e-09 1.00904e-09 -2.48668e-11 0.00108538 0.729439 0.764427 
1003 0.4512 0.4512 0 2.85674e-06 2.85674e-06 5.8546e-08 0.0186357 23.7808 23.9018 
1043 0.4264 0.4264 0 2.72258e-06 2.72258e-06 1.25879e-08 0.0175284 22.657 22.782 
1083 0.4524 0.4524 0 2.83905e-06 2.83905e-06 1.63016e-08 0.0189947 23.4462 23.6905 
1123 0.4712 0.4712 0 2.91317e-06 2.91317e-06 1.007e-09 0.0198116 24.0095 24.2586 
1163 0.4738 0.4738 0 2.93509e-06 2.93509e-06 -8.79917e-10 0.019614 24.2981 24.5451 
1203 0.4706 0.4706 0 2.86969e-06 2.86969e-06 1.79241e-08 0.0197953 23.4987 23.7685 
1243 0.4784 0.4784 0 2.83364e-06 2.83364e-06 2.86755e-08 0.0203537 23.5439 23.9471 
4 0.2448 0.2448 0 1.98481e-06 1.98481e-06 -7.11499e-09 0.161194 139.538 139.521 
44 5.649 5.649 0 6.14315e-05 6.14315e-05 6.80196e-08 0.614315 313.403 315.546 
84 5.685 5.685 0 6.14599e-05 6.14599e-05 7.06171e-09 0.614599 315.103 317.124 
124 5.6962 5.6962 0 6.13257e-05 6.13257e-05 7.16327e-08 0.613257 314.842 317.229 
164 5.6742 5.6742 0 6.12215e-05 6.12215e-05 -2.31205e-07 0.612215 311.844 314.773 
204 5.6358 5.6358 0 6.07608e-05 6.07608e-05 5.16441e-09 0.607608 309.456 312.814 
244 5.6544 5.6544 0 6.11524e-05 6.11524e-05 -8.7269e-08 0.611524 312 314.514 
284 5.6472 5.6472 0 6.14531e-05 6.14531e-05 2.26343e-08 0.614531 316.145 318.035 
324 0.4238 0.4238 0 4.2159e-06 4.2159e-06 -6.14474e-10 0.405058 246.515 247.31 
364 0.5002 0.5002 0 2.98108e-06 2.98108e-06 -2.98658e-08 0.0208554 24.602 25.0631 
404 0.4628 0.4628 0 2.76473e-06 2.76473e-06 2.8885e-08 0.0197303 22.9459 23.2487 
444 0.4452 0.4452 0 2.76776e-06 2.76776e-06 9.15503e-09 0.0185415 23.2735 23.4561 
484 0.4788 0.4788 0 2.98023e-06 2.98023e-06 2.76578e-08 0.0197349 24.8207 25.1613 
524 0.451 0.451 0 2.78921e-06 2.78921e-06 3.58139e-08 0.0189526 23.3429 23.3762 
564 0.4474 0.4474 0 2.74956e-06 2.74956e-06 -1.61723e-08 0.0187089 23.2694 23.3864 
604 0.4306 0.4306 0 2.72142e-06 2.72142e-06 -3.39013e-08 0.0179911 22.6082 22.9084 
644 0.0016 0.0016 0 -1.22442e-09 -1.22442e-09 -2.93717e-10 0.000846887 0.382091 0.345315 
684 0 0 0 0 0 0 0 0 0 
724 0 0 0 0 0 0 0 0 0 
764 0 0 0 0 0 0 0 0 0 
804 0 0 0 0 0 0 0 0 0 
844 0.0002 0.0002 0 -5.44448e-10 -5.44448e-10 -1.33858e-09 5.44448e-06 0.00681563 0.0127921 
884 0 0 0 0 0 0 0 0 0 
924 0 0 0 0 0 0 0 0 0 
964 0.0034 0.0034 0 1.46617e-09 1.46617e-09 1.81001e-09 0.00156441 0.826915 0.789555 
1004 0.4418 0.4418 0 2.78576e-06 2.78576e-06 1.72126e-08 0.0186769 23.028 23.1892 
1044 0.439 0.439 0 2.70207e-06 2.70207e-06 -7.188e-09 0.0183733 22.572 22.7464 
1084 0.46 0.46 0 2.82628e-06 2.82628e-06 3.36582e-09 0.0193546 22.8922 23.1809 
1124 0.4536 0.4536 0 2.82726e-06 2.82726e-06 4.64763e-09 0.018804 23.3606 23.4961 
1164 0.4626 0.4626 0 2.89473e-06 2.89473e-06 3.07592e-09 0.0193924 23.9935 24.1623 
1204 0.4638 0.4638 0 2.86348e-06 2.86348e-06 2.80094e-08 0.0193823 23.6707 23.7992 
1244 0.4774 0.4774 0 2.85387e-06 2.85387e-06 -2.03402e-09 0.0202223 23.3938 23.6851 
5 0.2876 0.2876 0 2.4832e-06 2.4832e-06 -3.7141e-09 0.208389 169.702 170.786 
45 5.659 5.659 0 6.16072e-05 6.16072e-05 6.51323e-08 0.616072 316.517 318.597 
85 5.6336 5.6336 0 6.10741e-05 6.10741e-05 -1.37284e-10 0.610741 311.747 314.597 
125 5.7268 5.7268 0 6.19254e-05 6.19254e-05 1.27127e-07 0.619254 315.868 318.668 
165 5.6702 5.6702 0 6.11261e-05 6.11261e-05 -3.92158e-09 0.611261 313.273 315.697 
205 5.7004 5.7004 0 6.14229e-05 6.14229e-05 6.95748e-09 0.614229 314.115 316.561 
245 5.6844 5.6844 0 6.16156e-05 6.16156e-05 4.89225e-08 0.616156 315.575 317.839 
285 5.6614 5.6614 0 6.17978e-05 6.17978e-05 -6.64873e-08 0.617978 315.927 318.01 
325 0.3978 0.3978 0 3.86316e-06 3.86316e-06 -8.85104e-09 0.365624 232.884 233.825 
365 0.4808 0.4808 0 2.84153e-06 2.84153e-06 -2.52798e-08 0.0204782 23.8629 24.0953 
405 0.4694 0.4694 0 2.86744e-06 2.86744e-06 5.44757e-09 0.0198121 23.6998 23.9591 
445 0.468 0.468 0 2.88617e-06 2.88617e-06 6.37325e-09 0.0195751 23.9349 24.1255 
485 0.462 0.462 0 2.90415e-06 2.90415e-06 -2.66281e-09 0.0195485 23.6663 23.7692 
525 0.4486 0.4486 0 2.81955e-06 2.81955e-06 2.16817e-08 0.0188992 23.3227 23.5132 
565 0.445 0.445 0 2.76762e-06 2.76762e-06 1.68509e-08 0.0185347 23.0762 23.2042 
605 0.4384 0.4384 0 2.7998e-06 2.7998e-06 -1.54563e-08 0.0183615 23.452 23.6898 
645 0.0014 0.0014 0 -1.35366e-09 -1.35366e-09 2.14755e-10 0.000572495 0.294345 0.313965 
685 0 0 0 0 0 0 0 0 0 
725 0 0 0 0 0 0 0 0 0 
765 0 0 0 0 0 0 0 0 0 
805 0 0 0 0 0 0 0 0 0 
845 0 0 0 0 0 0 0 0 0 
885 0 0 0 0 0 0 0 0 0 
925 0.0002 0.0002 0 -1.00137e-09 -1.00137e-09 6.40935e-10 1.00137e-05 0.00184307 0.00168227 
965 0.0046 0.0046 0 6.06585e-09 6.06585e-09 4.96093e-10 0.00233577 1.36558 1.42801 
1005 0.4534 0.4534 0 2.76087e-06 2.76087e-06 4.37139e-08 0.0190931 23.0879 23.2011 
1045 0.4596 0.4596 0 2.85156e-06 2.85156e-06 1.6982e-08 0.0192148 23.451 23.7024 
1085 0.454 0.454 0 2.79358e-06 2.79358e-06 -1.15175e-08 0.0187676 23.0849 23.2675 
1125 0.4676 0.4676 0 2.91907e-06 2.91907e-06 -3.22905e-08 0.0197653 23.9368 24.0798 
1165 0.4568 0.4568 0 2.74688e-06 2.74688e-06 -2.14923e-08 0.0194357 22.7887 23.0628 
1205 0.4928 0.4928 0 2.92435e-06 2.92435e-06 5.47969e-09 0.0205268 24.0901 24.4066 
1245 0.4764 0.4764 0 2.87586e-06 2.87586e-06 -3.13017e-09 0.0202847 23.946 24.2086 
6 0.3192 0.3192 0 2.87467e-06 2.87467e-06 -3.84859e-09 0.252867 191.971 192.159 
46 5.661 5.661 0 6.17083e-05 6.17083e-05 1.14767e-07 0.617083 316.175 318.813 
86 5.6464 5.6464 0 6.10407e-05 6.10407e-05 -1.37784e-07 0.610407 312.053 314.729 
126 5.6244 5.6244 0 6.05719e-05 6.05719e-05 9.72779e-08 0.605719 307.295 310.149 
166 5.6996 5.6996 0 6.13097e-05 6.13097e-05 7.85316e-08 0.613097 313.135 315.172 
206 5.6762 5.6762 0 6.09217e-05 6.09217e-05 -8.62514e-08 0.609217 314.326 317.455 
246 5.6626 5.6626 0 6.12983e-05 6.12983e-05 2.69797e-08 0.612983 310.977 313.426 
286 5.6548 5.6548 0 6.17092e-05 6.17092e-05 1.1163e-07 0.617092 315.93 318.216 
326 0.3456 0.3456 0 3.20358e-06 3.20358e-06 -4.23333e-09 0.294193 201.357 203.133 
366 0.4848 0.4848 0 2.9028e-06 2.9028e-06 9.71145e-10 0.0208176 24.385 24.6455 
406 0.491 0.491 0 2.9543e-06 2.9543e-06 2.40936e-08 0.0203414 24.0599 24.2875 
446 0.4642 0.4642 0 2.80471e-06 2.80471e-06 -1.65806e-08 0.0197894 23.4744 23.723 
486 0.4554 0.4554 0 2.85597e-06 2.85597e-06 2.74768e-08 0.0187283 23.3626 23.5552 
526 0.4564 0.4564 0 2.7931e-06 2.7931e-06 2.48737e-08 0.0190525 23.2856 23.4726 
566 0.4484 0.4484 0 2.81052e-06 2.81052e-06 -3.41065e-09 0.0188638 23.3232 23.5652 
606 0.4538 0.4538 0 2.89e-06 2.89e-06 1.40063e-08 0.0191601 24.1312 24.2863 
646 0.0008 0.0008 0 -2.27745e-09 -2.27745e-09 -3.93899e-10 0.000399322 0.0551714 0.0617475 
686 0 0 0 0 0 0 0 0 0 
726 0 0 0 0 0 0 0 0 0 
766 0 0 0 0 0 0 0 0 0 
806 0 0 0 0 0 0 0 0 0 
846 0.0004 0.0004 0 -1.67868e-09 -1.67868e-09 4.82856e-10 1.67868e-05 0.0123583 0.0103857 
886 0 0 0 0 0 0 0 0 0 
926 0 0 0 0 0 0 0 0 0 
966 0.007 0.007 0 1.62404e-08 1.62404e-08 -8.13334e-10 0.00321303 1.80627 2.17256 
1006 0.4538 0.4538 0 2.85934e-06 2.85934e-06 5.22192e-09 0.0190911 23.8393 24.0265 
1046 0.4402 0.4402 0 2.82798e-06 2.82798e-06 -3.51002e-08 0.018401 23.604 23.6485 
1086 0.447 0.447 0 2.85081e-06 2.85081e-06 -1.22355e-08 0.0186251 23.5361 23.6985 
1126 0.4544 0.4544 0 2.8725e-06 2.8725e-06 5.22304e-08 0.0190268 23.9526 24.0991 
1166 0.4496 0.4496 0 2.74601e-06 2.74601e-06 4.71425e-08 0.0189032 22.6771 22.8548 
1206 0.4902 0.4902 0 2.95851e-06 2.95851e-06 -1.78561e-08 0.0204706 24.6044 24.8976 
1246 0.4698 0.4698 0 2.87053e-06 2.87053e-06 -1.88319e-08 0.0196648 23.5405 23.8052 
7 0.356 0.356 0 3.32261e-06 3.32261e-06 -3.81252e-08 0.305152 208.774 209.469 
47 5.632 5.632 0 6.13884e-05 6.13884e-05 5.16773e-08 0.613884 313.102 315.394 
87 5.6906 5.6906 0 6.14908e-05 6.14908e-05 6.31823e-08 0.614908 315.215 318.161 
127 5.6238 5.6238 0 6.06227e-05 6.06227e-05 -7.39839e-08 0.606227 308.766 311.971 
167 5.6412 5.6412 0 6.08055e-05 6.08055e-05 2.01208e-08 0.608055 307.558 309.909 
207 5.6222 5.6222 0 6.06106e-05 6.06106e-05 -5.03696e-08 0.606106 308.366 310.912 
247 5.6954 5.6954 0 6.16109e-05 6.16109e-05 -6.8977e-09 0.616109 316.67 318.744 
287 5.606 5.606 0 6.11971e-05 6.11971e-05 1.70987e-08 0.611971 312.839 314.853 
327 0.3202 0.3202 0 2.86722e-06 2.86722e-06 2.58552e-08 0.254881 186.157 187.692 
367 0.4702 0.4702 0 2.82885e-06 2.82885e-06 5.77346e-09 0.0199727 23.3396 23.6076 
407 0.4626 0.4626 0 2.80426e-06 2.80426e-06 -1.78434e-08 0.0196905 23.4412 23.7546 
447 0.4544 0.4544 0 2.7706e-06 2.7706e-06 1.27447e-08 0.0189045 22.709 22.8828 
487 0.4478 0.4478 0 2.7245e-06 2.7245e-06 6.47054e-09 0.0188146 22.6991 22.8703 
527 0.4358 0.4358 0 2.69973e-06 2.69973e-06 -3.17222e-08 0.0183479 22.2303 22.4324 
567 0.4368 0.4368 0 2.72301e-06 2.72301e-06 2.89286e-08 0.0184195 22.4979 22.6889 
607 0.4472 0.4472 0 2.7488e-06 2.7488e-06 -3.28058e-09 0.0186951 23.0105 23.2018 
647 0.0014 0.0014 0 -1.10184e-09 -1.10184e-09 -1.24402e-09 0.000391777 0.172708 0.207145 
687 0 0 0 0 0 0 0 0 0 
727 0 0 0 0 0 0 0 0 0 
767 0 0 0 0 0 0 0 0 0 
807 0 0 0 0 0 0 0 0 0 
847 0 0 0 0 0 0 0 0 0 
887 0 0 0 0 0 0 0 0 0 
927 0 0 0 0 0 0 0 0 0 
967 0.0098 0.0098 0 2.98278e-08 2.98278e-08 4.7618e-09 0.00425506 3.42663 3.63388 
1007 0.4462 0.4462 0 2.77969e-06 2.77969e-06 -2.42311e-08 0.0187269 22.9015 23.076 
1047 0.4526 0.4526 0 2.84468e-06 2.84468e-06 2.26002e-08 0.0189576 23.7952 23.9372 
1087 0.4638 0.4638 0 2.89379e-06 2.89379e-06 4.19224e-09 0.0192861 23.5027 23.7226 
1127 0.4622 0.4622 0 2.76486e-06 2.76486e-06 -3.14337e-08 0.0197901 22.8009 23.0384 
1167 0.4738 0.4738 0 2.89678e-06 2.89678e-06 -8.75822e-10 0.0201117 23.8603 24.0886 
1207 0.4726 0.4726 0 2.84779e-06 2.84779e-06 -9.86154e-09 0.0197087 23.6911 23.9213 
1247 0.4954 0.4954 0 2.93779e-06 2.93779e-06 2.93579e-08 0.0208983 24.177 24.6217 
8 0.4072 0.4072 0 3.92923e-06 3.92923e-06 -2.38576e-08 0.372536 239.98 240.695 
48 5.6968 5.6968 0 6.20295e-05 6.20295e-05 4.63122e-08 0.620295 317.033 319.302 
88 5.6738 5.6738 0 6.14097e-05 6.14097e-05 1.41341e-07 0.614097 315.218 317.454 
128 5.6456 5.6456 0 6.09089e-05 6.09089e-05 4.21802e-09 0.609089 310.866 313.079 
168 5.6254 5.6254 0 6.05685e-05 6.05685e-05 -1.0488e-07 0.605685 310.231 312.523 
208 5.6572 5.6572 0 6.09717e-05 6.09717e-05 -3.57376e-08 0.609717 313.076 315.633 
248 5.655 5.655 0 6.12599e-05 6.12599e-05 1.12292e-07 0.612599 312.531 315.059 
288 5.664 5.664 0 6.17384e-05 6.17384e-05 -4.3354e-08 0.617384 316.553 318.914 
328 0.281 0.281 0 2.46195e-06 2.46195e-06 1.36506e-08 0.205318 170.334 169.907 
368 0.4838 0.4838 0 2.88169e-06 2.88169e-06 -2.65099e-09 0.020166 24.1225 24.4082 
408 0.472 0.472 0 2.80937e-06 2.80937e-06 -2.23309e-08 0.0201092 23.3279 23.4653 
448 0.4542 0.4542 0 2.81115e-06 2.81115e-06 -3.3781e-08 0.0191943 23.6602 23.8625 
488 0.4516 0.4516 0 2.81087e-06 2.81087e-06 2.68342e-08 0.0191237 23.5062 23.6662 
528 0.4448 0.4448 0 2.80513e-06 2.80513e-06 -8.22702e-09 0.0187413 23.2885 23.3705 
568 0.4352 0.4352 0 2.79407e-06 2.79407e-06 1.61388e-08 0.0184106 23.43 23.5587 
608 0.4582 0.4582 0 2.89329e-06 2.89329e-06 -1.41392e-08 0.0194146 23.8851 24.0623 
648 0.0004 0.0004 0 -5.25116e-10 -5.25116e-10 6.03855e-11 0.000102144 0.0290891 0.00142918 
688 0.0002 0.0002 0 -7.80488e-10 -7.80488e-10 -2.12231e-10 7.80488e-06 -0.000688526 -0.00225538 
728 0 0 0 0 0 0 0 0 0 
768 0.0008 0.0008 0 -2.07314e-09 -2.07314e-09 3.36411e-10 2.07314e-05 0.0078592 0.00740824 
808 0.0004 0.0004 0 -1.14185e-09 -1.14185e-09 -1.0596e-09 1.14185e-05 0.00574378 0.00471696 
848 0 0 0 0 0 0 0 0 0 
888 0.0002 0.0002 0 -1.70639e-10 -1.70639e-10 0 1.70639e-06 0 0 
928 0 0 0 0 0 0 0 0 0 
968 0.0156 0.0156 0 7.21595e-08 7.21595e-08 -1.09046e-08 0.00679925 6.81394 7.07587 
1008 0.4518 0.4518 0 2.81883e-06 2.81883e-06 -3.69187e-09 0.0190053 23.4737 23.7503 
1048 0.45 0.45 0 2.85423e-06 2.85423e-06 9.16594e-09 0.0186279 23.4738 23.5578 
1088 0.4388 0.4388 0 2.77876e-06 2.77876e-06 -3.03095e-08 0.0183958 22.9473 22.9391 
1128 0.4486 0.4486 0 2.82761e-06 2.82761e-06 2.65429e-08 0.0187321 23.5946 23.765 
1168 0.4828 0.4828 0 2.96084e-06 2.96084e-06 -4.43813e-08 0.0203009 24.491 24.5865 
1208 0.4644 0.4644 0 2.74484e-06 2.74484e-06 -1.40192e-08 0.0195778 22.7706 23.083 
1248 0.5004 0.5004 0 3.02034e-06 3.02034e-06 -1.95291e-08 0.0210632 25.2501 25.5475 
9 0.4274 0.4274 0 4.30054e-06 4.30054e-06 2.09508e-08 0.41645 247.676 250.573 
49 5.683 5.683 0 6.18042e-05 6.18042e-05 -5.79526e-08 0.618042 318.257 320.24 
89 5.6046 5.6046 0 6.05986e-05 6.05986e-05 -1.47537e-07 0.605986 310.012 312.516 
129 5.5948 5.5948 0 6.05058e-05 6.05058e-05 3.62807e-08 0.605058 310.24 312.831 
169 5.6564 5.6564 0 6.0846e-05 6.0846e-05 -1.22212e-08 0.60846 310.862 313.517 
209 5.626 5.626 0 6.0557e-05 6.0557e-05 9.21705e-08 0.60557 309.186 311.606 
249 5.7184 5.7184 0 6.18265e-05 6.18265e-05 6.90937e-08 0.618265 316.492 318.798 
289 5.6512 5.6512 0 6.16307e-05 6.16307e-05 -3.93e-08 0.616307 316.018 318.333 
329 0.2208 0.2208 0 1.82383e-06 1.82383e-06 -2.22315e-08 0.143037 131.139 132.252 
369 0.492 0.492 0 2.94215e-06 2.94215e-06 -3.74684e-08 0.0208895 24.3951 24.7172 
409 0.4662 0.4662 0 2.79262e-06 2.79262e-06 2.12935e-09 0.0193595 22.9141 23.0873 
449 0.455 0.455 0 2.75275e-06 2.75275e-06 9.98653e-09 0.0192398 22.9442 23.2787 
489 0.4622 0.4622 0 2.79536e-06 2.79536e-06 3.91678e-08 0.0196127 23.0603 23.284 
529 0.452 0.452 0 2.78326e-06 2.78326e-06 2.29622e-08 0.0190063 23.2728 23.3955 
569 0.428 0.428 0 2.66052e-06 2.66052e-06 -1.53262e-08 0.0182288 22.117 22.2268 
609 0.4592 0.4592 0 2.86486e-06 2.86486e-06 -1.53035e-08 0.0193898 24.1788 24.3144 
649 0.0004 0.0004 0 -9.44856e-10 -9.44856e-10 -6.99442e-10 0.000145017 0.051238 0.0632558 
689 0 0 0 0 0 0 0 0 0 
729 0.0002 0.0002 0 -7.21997e-10 -7.21997e-10 4.57358e-10 7.21997e-06 0.00052076 0.00186373 
769 0 0 0 0 0 0 0 0 0 
809 0.0004 0.0004 0 -1.14152e-09 -1.14152e-09 5.22026e-11 1.14152e-05 0.00201189 0.00214172 
849 0.0002 0.0002 0 -5.09974e-10 -5.09974e-10 6.95334e-10 5.09974e-06 0.00199015 0.0016893 
889 0 0 0 0 0 0 0 0 0 
929 0 0 0 0 0 0 0 0 0 
969 0.035 0.035 0 2.10755e-07 2.10755e-07 9.14486e-09 0.0152264 17.7042 17.8398 
1009 0.4446 0.4446 0 2.91061e-06 2.91061e-06 5.14651e-08 0.0182693 23.9511 24.2386 
1049 0.441 0.441 0 2.79589e-06 2.79589e-06 3.38461e-08 0.0185671 23.178 23.3798 
1089 0.4548 0.4548 0 2.86402e-06 2.86402e-06 -2.32379e-08 0.0190762 23.8698 24.0587 
1129 0.475 0.475 0 2.93733e-06 2.93733e-06 1.70432e-08 0.0199199 24.1765 24.3858 
1169 0.4602 0.4602 0 2.83908e-06 2.83908e-06 2.13369e-08 0.0193584 23.6547 23.7927 
1209 0.4668 0.4668 0 2.82255e-06 2.82255e-06 1.95321e-08 0.0198641 23.9318 24.0617 
1249 0.4884 0.4884 0 2.96681e-06 2.96681e-06 1.21357e-08 0.0205191 24.8379 25.0955 
10 0.466 0.466 0 4.77674e-06 4.77674e-06 -2.09738e-09 0.469122 270.601 271.838 
50 5.6258 5.6258 0 6.1203e-05 6.1203e-05 -8.87225e-09 0.61203 313.23 315.797 
90 5.6888 5.6888 0 6.17891e-05 6.17891e-05 9.1761e-08 0.617891 312.051 314.73 
130 5.6498 5.6498 0 6.08703e-05 6.08703e-05 5.40906e-08 0.608703 312.326 314.466 
170 5.667 5.667 0 6.11161e-05 6.11161e-05 -9.53421e-08 0.611161 311.477 313.659 
210 5.6356 5.6356 0 6.07042e-05 6.07042e-05 4.87979e-08 0.607042 309.948 312.766 
250 5.6656 5.6656 0 6.13266e-05 6.13266e-05 -3.05254e-08 0.613266 312.402 315.034 
290 5.6374 5.6374 0 6.14421e-05 6.14421e-05 -1.29797e-07 0.614421 314.193 316.082 
330 0.175 0.175 0 1.34678e-06 1.34678e-06 5.99697e-11 0.104283 99.7686 100.351 
370 0.4576 0.4576 0 2.77697e-06 2.77697e-06 -8.35902e-09 0.0192012 22.7783 23.1737 
410 0.4734 0.4734 0 2.87674e-06 2.87674e-06 2.01801e-08 0.0195699 23.683 23.8607 
450 0.4656 0.4656 0 2.84286e-06 2.84286e-06 2.70055e-08 0.0192267 23.6634 23.8912 
490 0.4634 0.4634 0 2.90353e-06 2.90353e-06 -4.75511e-08 0.0191011 24.0814 24.2371 
530 0.4402 0.4402 0 2.79901e-06 2.79901e-06 2.75579e-08 0.0180199 23.1537 23.3847 
570 0.444 0.444 0 2.77027e-06 2.77027e-06 -2.89585e-08 0.0186839 22.9848 23.1068 
610 0.4476 0.4476 0 2.78945e-06 2.78945e-06 -2.60197e-08 0.0182876 23.2069 23.1857 
650 0 0 0 0 0 0 0 0 0 
690 0.0002 0.0002 0 -6.51931e-10 -6.51931e-10 -4.93905e-10 6.51931e-06 0.00544773 0.00595881 
730 0 0 0 0 0 0 0 0 0 
770 0 0 0 0 0 0 0 0 0 
810 0 0 0 0 0 0 0 0 0 
850 0 0 0 0 0 0 0 0 0 
890 0.0004 0.0004 0 -1.64136e-09 -1.64136e-09 3.04468e-11 1.64136e-05 -0.00179846 -0.00266851 
930 0.0002 0.0002 0 -9.57021e-10 -9.57021e-10 -6.91351e-10 9.57021e-06 -0.00135828 -0.00245204 
970 0.112 0.112 0 6.93656e-07 6.93656e-07 1.43616e-08 0.0186728 22.8891 23.1118 
1010 0.4456 0.4456 0 2.84646e-06 2.84646e-06 4.45423e-09 0.0187625 23.6959 23.9481 
1050 0.4536 0.4536 0 2.88245e-06 2.88245e-06 1.52098e-08 0.0190155 23.9414 24.2246 
1090 0.4522 0.4522 0 2.77641e-06 2.77641e-06 -1.62957e-08 0.0192065 22.8381 23.1229 
1130 0.46 0.46 0 2.88092e-06 2.88092e-06 4.42472e-09 0.0194288 23.7111 23.9149 
1170 0.4602 0.4602 0 2.80647e-06 2.80647e-06 -2.14243e-08 0.0191434 23.1543 23.4731 
1210 0.464 0.464 0 2.77037e-06 2.77037e-06 -4.12704e-08 0.0195971 23.2601 23.4242 
1250 0.4962 0.4962 0 2.9975e-06 2.9975e-06 -7.68102e-09 0.020924 24.6028 24.8649 
11 0.4846 0.4846 0 5.10238e-06 5.10238e-06 -3.46485e-08 0.506829 286.581 287.109 
51 5.6688 5.6688 0 6.15268e-05 6.15268e-05 9.45515e-09 0.615268 316.583 319.024 
91 5.6488 5.6488 0 6.10177e-05 6.10177e-05 2.747e-08 0.610177 312.475 315.343 
131 5.6662 5.6662 0 6.12409e-05 6.12409e-05 -1.69062e-08 0.612409 311.649 314.183 
171 5.6734 5.6734 0 6.10016e-05 6.10016e-05 -1.95299e-07 0.610016 312.503 315.047 
211 5.6714 5.6714 0 6.10133e-05 6.10133e-05 8.40522e-08 0.610133 312.994 315.584 
251 5.6404 5.6404 0 6.10821e-05 6.10821e-05 -6.85871e-08 0.610821 312.287 314.602 
291 5.7258 5.7258 0 6.239e-05 6.239e-05 4.45699e-08 0.6239 319.728 321.681 
331 0.1452 0.1452 0 1.04856e-06 1.04856e-06 2.1693e-10 0.0754946 80.2205 80.95 
371 0.4808 0.4808 0 2.84581e-06 2.84581e-06 -3.05985e-08 0.0205661 23.5042 23.7158 
411 0.4584 0.4584 0 2.81059e-06 2.81059e-06 -1.54572e-09 0.0187676 23.1865 23.2519 
451 0.4494 0.4494 0 2.7751e-06 2.7751e-06 -1.14647e-08 0.018702 23.2093 23.4305 
491 0.4396 0.4396 0 2.73543e-06 2.73543e-06 3.29692e-08 0.018347 22.4562 22.573 
531 0.4578 0.4578 0 2.83976e-06 2.83976e-06 -1.25132e-08 0.0191026 23.3611 23.7332 
571 0.4504 0.4504 0 2.81774e-06 2.81774e-06 -1.30054e-08 0.0186998 23.1534 23.3511 
611 0.4486 0.4486 0 2.86828e-06 2.86828e-06 -5.68333e-08 0.0187214 23.8385 24.0444 
651 0 0 0 0 0 0 0 0 0 
691 0.0002 0.0002 0 -5.53757e-10 -5.53757e-10 0 5.53757e-06 6.50001e-19 6.50001e-19 
731 0 0 0 0 0 0 0 0 0 
771 0.0002 0.0002 0 -2.36631e-10 -2.36631e-10 -4.80102e-10 2.36631e-06 0.00418455 0.00944933 
811 0 0 0 0 0 0 0 0 0 
851 0.0002 0.0002 0 -5.87889e-10 -5.87889e-10 1.05563e-09 5.87889e-06 0.00241842 0.00576784 
891 0 0 0 0 0 0 0 0 0 
931 0.0002 0.0002 0 -1.78474e-10 -1.78474e-10 -2.01375e-11 1.78474e-06 -0.000447866 0.00205445 
971 0.1064 0.1064 0 6.93901e-07 6.93901e-07 6.10985e-09 0.0177404 22.2497 22.359 
1011 0.4326 0.4326 0 2.76812e-06 2.76812e-06 -1.62292e-09 0.0182753 23.1339 23.2433 
1051 0.4654 0.4654 0 2.9202e-06 2.9202e-06 2.04564e-08 0.0197951 24.5307 24.6473 
1091 0.4652 0.4652 0 2.84783e-06 2.84783e-06 -1.16558e-08 0.0195121 23.5181 23.6598 
1131 0.477 0.477 0 2.97624e-06 2.97624e-06 -5.1573e-09 0.020359 24.5883 24.7765 
1171 0.478 0.478 0 2.97425e-06 2.97425e-06 3.43798e-08 0.0198567 24.4674 24.7032 
1211 0.4788 0.4788 0 2.92875e-06 2.92875e-06 7.05899e-08 0.0198723 24.2394 24.555 
1251 0.4854 0.4854 0 2.92335e-06 2.92335e-06 2.50164e-09 0.0203524 23.9585 24.317 
12 0.515 0.515 0 5.54164e-06 5.54164e-06 2.24646e-09 0.557842 299.396 301.843 
52 5.596 5.596 0 6.10602e-05 6.10602e-05 1.21776e-07 0.610602 313.552 315.584 
92 5.6604 5.6604 0 6.11896e-05 6.11896e-05 3.59665e-08 0.611896 312.408 315.481 
132 5.6508 5.6508 0 6.08038e-05 6.08038e-05 -6.76256e-08 0.608038 312.093 314.888 
172 5.6704 5.6704 0 6.12539e-05 6.12539e-05 4.56346e-08 0.612539 312.138 314.802 
212 5.6012 5.6012 0 6.02914e-05 6.02914e-05 7.0649e-08 0.602914 308.441 311.348 
252 5.652 5.652 0 6.13879e-05 6.13879e-05 5.13277e-08 0.613879 313.832 315.527 
292 5.6208 5.6208 0 6.12929e-05 6.12929e-05 1.63528e-07 0.612929 316.042 317.652 
332 0.098 0.098 0 6.90275e-07 6.90275e-07 8.87987e-09 0.0457931 55.1938 55.3175 
372 0.4644 0.4644 0 2.76612e-06 2.76612e-06 -1.78272e-08 0.0196417 23.088 23.3538 
412 0.4694 0.4694 0 2.82359e-06 2.82359e-06 4.0006e-08 0.0197742 23.7407 24.1296 
452 0.445 0.445 0 2.64389e-06 2.64389e-06 -1.90798e-08 0.0188794 21.779 22.0327 
492 0.4674 0.4674 0 2.91268e-06 2.91268e-06 2.12144e-08 0.0197128 24.0757 24.204 
532 0.4684 0.4684 0 2.95504e-06 2.95504e-06 2.61814e-08 0.0197331 24.7145 24.8779 
572 0.4368 0.4368 0 2.72971e-06 2.72971e-06 -7.73849e-09 0.0182628 22.6485 22.89 
612 0.4634 0.4634 0 2.84041e-06 2.84041e-06 1.26845e-08 0.0194793 23.5538 23.6511 
652 0 0 0 0 0 0 0 0 0 
692 0.0002 0.0002 0 -3.80184e-10 -3.80184e-10 -2.24247e-10 3.80184e-06 0.00125144 0.00218708 
732 0 0 0 0 0 0 0 0 0 
772 0 0 0 0 0 0 0 0 0 
812 0.0006 0.0006 0 -1.987e-09 -1.987e-09 6.81169e-10 1.987e-05 0.00699395 0.00787776 
852 0.0002 0.0002 0 -6.29585e-10 -6.29585e-10 -5.47083e-10 6.29585e-06 -0.000891974 -0.00375528 
892 0.0002 0.0002 0 -2.59797e-10 -2.59797e-10 3.09225e-10 2.59797e-06 0.00371096 0.00350547 
932 0 0 0 0 0 0 0 0 0 
972 0.229 0.229 0 1.45362e-06 1.45362e-06 1.8267e-08 0.0194215 23.9206 24.1271 
1012 0.448 0.448 0 2.8307e-06 2.8307e-06 -2.6852e-09 0.0187385 24.1431 24.3867 
1052 0.439 0.439 0 2.77853e-06 2.77853e-06 -1.19589e-08 0.0182813 23.127 23.2574 
1092 0.4664 0.4664 0 2.85828e-06 2.85828e-06 -1.63879e-08 0.0195186 23.6335 23.7884 
1132 0.4496 0.4496 0 2.71493e-06 2.71493e-06 -7.99053e-09 0.01903 22.3191 22.5425 
1172 0.4502 0.4502 0 2.78686e-06 2.78686e-06 -2.79213e-08 0.0192192 22.9393 23.1196 
1212 0.4618 0.4618 0 2.74548e-06 2.74548e-06 -4.13993e-08 0.0195288 22.5378 22.8937 
1252 0.4796 0.4796 0 2.83766e-06 2.83766e-06 2.37823e-08 0.0202866 23.2127 23.5636 
13 0.5286 0.5286 0 5.70108e-06 5.70108e-06 2.93941e-09 0.577326 302.721 303.944 
53 5.6586 5.6586 0 6.16881e-05 6.16881e-05 -2.26377e-08 0.616881 317.593 319.845 
93 5.6818 5.6818 0 6.14408e-05 6.14408e-05 -8.31169e-08 0.614408 314.24 316.829 
133 5.626 5.626 0 6.0686e-05 6.0686e-05 -1.55381e-07 0.60686 309.729 311.941 
173 5.726 5.726 0 6.16518e-05 6.16518e-05 1.14702e-08 0.616518 313.295 316.028 
213 5.702 5.702 0 6.14848e-05 6.14848e-05 -2.5202e-08 0.614848 313.509 315.775 
253 5.679 5.679 0 6.14441e-05 6.14441e-05 4.00155e-08 0.614441 314.668 317.187 
293 5.688 5.688 0 6.21929e-05 6.21929e-05 -6.98796e-08 0.621929 318.467 320.718 
333 0.0692 0.0692 0 4.47807e-07 4.47807e-07 -7.34092e-09 0.030655 36.5121 36.4455 
373 0.4642 0.4642 0 2.74651e-06 2.74651e-06 1.5915e-08 0.0196381 22.7852 22.9852 
413 0.4672 0.4672 0 2.86881e-06 2.86881e-06 1.10825e-08 0.0193649 23.6656 24.0464 
453 0.4802 0.4802 0 2.91303e-06 2.91303e-06 -1.92478e-08 0.0202687 24.0548 24.1863 
493 0.464 0.464 0 2.82911e-06 2.82911e-06 1.47388e-09 0.0196913 23.4944 23.6996 
533 0.4578 0.4578 0 2.9322e-06 2.9322e-06 1.45587e-08 0.0189977 24.2951 24.4155 
573 0.4536 0.4536 0 2.7912e-06 2.7912e-06 -1.47722e-08 0.0189456 23.1712 23.3608 
613 0.4488 0.4488 0 2.84237e-06 2.84237e-06 2.67339e-08 0.019023 23.9515 24.0791 
653 0 0 0 0 0 0 0 0 0 
693 0 0 0 0 0 0 0 0 0 
733 0 0 0 0 0 0 0 0 0 
773 0 0 0 0 0 0 0 0 0 
813 0 0 0 0 0 0 0 0 0 
853 0 0 0 0 0 0 0 0 0 
893 0 0 0 0 0 0 0 0 0 