ITEM: TIMESTEP
20000
ITEM: NUMBER OF SURFS
1272
ITEM: BOX BOUNDS oo rr pp
0 0.3
0 0.3
-0.5 0.5
ITEM: SURFS id f_4[1] f_4[2] f_4[3] f_4[4] f_4[5] f_4[6] f_4[7] f_4[8] f_4[9] 
1 0.1056 0.1056 0 1.3304e-06 1.3304e-06 -3.7062e-08 0.102026 106.147 108.734 
41 5.8132 5.8132 0 0.000119115 0.000119115 -1.63405e-07 1.19115 600.803 611.841 
81 5.8164 5.8164 0 0.0001178 0.0001178 -3.8432e-09 1.178 596.675 608.906 
121 5.7808 5.7808 0 0.000116181 0.000116181 -1.57387e-07 1.16181 579.872 592.824 
161 5.832 5.832 0 0.000116561 0.000116561 1.37046e-07 1.16561 587.183 599.993 
201 5.8032 5.8032 0 0.000116433 0.000116433 9.83563e-08 1.16433 579.81 593.023 
241 5.793 5.793 0 0.000116669 0.000116669 -6.17105e-08 1.16669 584.092 596.394 
281 5.7342 5.7342 0 0.00011717 0.00011717 -1.85191e-07 1.1717 586.907 597.842 
321 0.5146 0.5146 0 1.04929e-05 1.04929e-05 3.02967e-08 1.05318 561.457 569.121 
361 0.5594 0.5594 0 5.93843e-06 5.93843e-06 -2.27383e-08 0.0500198 49.3793 50.5007 
401 0.5474 0.5474 0 5.97878e-06 5.97878e-06 -7.86907e-09 0.0484612 48.9618 50.3829 
441 0.5364 0.5364 0 6.01085e-06 6.01085e-06 1.67676e-08 0.0475505 50.1869 51.4483 
481 0.519 0.519 0 5.84523e-06 5.84523e-06 -2.47083e-08 0.0454869 48.856 50.2152 
521 0.5158 0.5158 0 5.80386e-06 5.80386e-06 -7.46397e-08 0.045194 48.3134 49.5097 
561 0.5094 0.5094 0 5.82978e-06 5.82978e-06 4.3859e-08 0.0451219 48.6241 49.7119 
601 0.506 0.506 0 5.78429e-06 5.78429e-06 -9.66766e-10 0.0450458 48.9774 49.9484 
641 0.0058 0.0058 0 1.76438e-08 1.76438e-08 -5.09361e-09 0.00540673 4.50132 4.70666 
681 0.001 0.001 0 -5.94018e-09 -5.94018e-09 -1.62913e-09 5.94018e-05 0.0199803 0.0298201 
721 0 0 0 0 0 0 0 0 0 
761 0.0004 0.0004 0 -2.07656e-09 -2.07656e-09 -6.33592e-10 2.07656e-05 0.0104962 0.0133188 
801 0.0002 0.0002 0 -8.01017e-10 -8.01017e-10 1.38833e-09 8.01017e-06 0.00149684 0.00527258 
841 0.0002 0.0002 0 -1.25063e-09 -1.25063e-09 -1.47178e-10 1.25063e-05 0.00957659 0.00989086 
881 0 0 0 0 0 0 0 0 0 
921 0.0006 0.0006 0 -4.82504e-09 -4.82504e-09 -8.44833e-10 4.82504e-05 0.0179554 0.0235269 
961 0.0036 0.0036 0 -7.8402e-09 -7.8402e-09 -2.57675e-09 0.00309134 1.32734 1.56076 
1001 0.4896 0.4896 0 5.47486e-06 5.47486e-06 7.35836e-08 0.0435587 45.9853 46.9606 
1041 0.506 0.506 0 5.69308e-06 5.69308e-06 -3.14683e-08 0.0443178 47.3541 48.418 
1081 0.5098 0.5098 0 5.78169e-06 5.78169e-06 -4.41266e-08 0.0450777 47.91 49.0218 
1121 0.531 0.531 0 5.80982e-06 5.80982e-06 3.99379e-08 0.0471015 48.7728 49.5759 
1161 0.5384 0.5384 0 5.78555e-06 5.78555e-06 -7.41349e-09 0.0476702 48.6005 49.7787 
1201 0.5646 0.5646 0 6.15981e-06 6.15981e-06 -6.93328e-08 0.0500489 50.7614 51.9808 
1241 0.5758 0.5758 0 6.45113e-06 6.45113e-06 1.34989e-08 0.0511043 53.3872 55.0199 
2 0.1454 0.1454 0 2.03895e-06 2.03895e-06 1.75459e-08 0.155409 153.257 155.702 
42 5.8012 5.8012 0 0.000119403 0.000119403 -7.37924e-08 1.19403 598.844 608.792 
82 5.7972 5.7972 0 0.000117163 0.000117163 -1.11225e-08 1.17163 585.608 598.678 
122 5.8144 5.8144 0 0.000116725 0.000116725 1.13261e-07 1.16725 582.692 594.819 
162 5.835 5.835 0 0.00011715 0.00011715 1.19595e-07 1.1715 585.449 598.097 
202 5.858 5.858 0 0.000117921 0.000117921 1.37114e-07 1.17921 583.255 596.046 
242 5.8354 5.8354 0 0.000117665 0.000117665 2.54593e-07 1.17665 589.385 602.758 
282 5.7654 5.7654 0 0.000117938 0.000117938 -4.53487e-08 1.17938 593.225 603.766 
322 0.4942 0.4942 0 9.91948e-06 9.91948e-06 2.34165e-08 0.985127 544.818 551.006 
362 0.5474 0.5474 0 5.92687e-06 5.92687e-06 -4.25052e-08 0.0491731 50.0025 51.5721 
402 0.5578 0.5578 0 6.15642e-06 6.15642e-06 7.15495e-08 0.0493518 51.5665 52.6862 
442 0.519 0.519 0 5.7067e-06 5.7067e-06 -8.55707e-08 0.0464721 47.9567 49.0619 
482 0.5284 0.5284 0 5.91445e-06 5.91445e-06 5.89835e-08 0.0470063 49.4161 50.641 
522 0.5246 0.5246 0 5.89442e-06 5.89442e-06 3.45555e-09 0.0468398 49.0394 50.234 
562 0.5092 0.5092 0 5.77655e-06 5.77655e-06 3.17545e-08 0.045517 47.7378 48.8065 
602 0.4896 0.4896 0 5.54638e-06 5.54638e-06 -5.7227e-09 0.0430671 46.1327 47.3707 
642 0.0038 0.0038 0 5.86204e-09 5.86204e-09 -4.17925e-09 0.00390937 2.35142 2.39764 
682 0.0002 0.0002 0 -6.40356e-10 -6.40356e-10 -1.27258e-10 6.40356e-06 0.00667956 0.00149312 
722 0.0004 0.0004 0 -2.12404e-09 -2.12404e-09 1.91621e-10 2.12404e-05 0.00511178 0.00787162 
762 0.0006 0.0006 0 -3.24364e-09 -3.24364e-09 8.12291e-10 3.24364e-05 0.00275271 0.00168356 
802 0 0 0 0 0 0 0 0 0 
842 0.0004 0.0004 0 -2.369e-09 -2.369e-09 3.13138e-09 2.369e-05 0.0108169 0.0118455 
882 0 0 0 0 0 0 0 0 0 
922 0 0 0 0 0 0 0 0 0 
962 0.0018 0.0018 0 8.4889e-10 8.4889e-10 3.48924e-09 0.0013077 1.11519 1.22058 
1002 0.4872 0.4872 0 5.73671e-06 5.73671e-06 6.08749e-08 0.0427836 47.1654 48.1889 
1042 0.5138 0.5138 0 5.98085e-06 5.98085e-06 -3.54754e-08 0.0451181 49.7932 51.0645 
1082 0.5154 0.5154 0 5.88404e-06 5.88404e-06 -4.93283e-08 0.0461262 50.0383 50.8408 
1122 0.5212 0.5212 0 5.89641e-06 5.89641e-06 -4.09903e-08 0.0464096 49.2728 50.5134 
1162 0.5294 0.5294 0 5.88544e-06 5.88544e-06 4.51039e-08 0.0479311 49.4617 50.6249 
1202 0.5368 0.5368 0 5.78043e-06 5.78043e-06 8.62654e-09 0.0477522 48.0602 49.2565 
1242 0.5562 0.5562 0 5.89745e-06 5.89745e-06 6.04362e-08 0.0501733 48.9934 50.3313 
3 0.191 0.191 0 2.81339e-06 2.81339e-06 -3.13713e-09 0.224353 203.419 205.276 
43 5.8092 5.8092 0 0.00011881 0.00011881 6.08247e-07 1.1881 601.779 612.524 
83 5.8292 5.8292 0 0.000118191 0.000118191 3.65584e-07 1.18191 590.652 602.512 
123 5.822 5.822 0 0.000116644 0.000116644 -1.74136e-07 1.16644 585.358 597.846 
163 5.8168 5.8168 0 0.000116046 0.000116046 -4.59469e-07 1.16046 578.641 591.213 
203 5.8508 5.8508 0 0.000117336 0.000117336 -1.32635e-07 1.17336 585.629 598.424 
243 5.8392 5.8392 0 0.00011719 0.00011719 1.29736e-07 1.1719 591.492 603.271 
283 5.8646 5.8646 0 0.000119274 0.000119274 1.07556e-07 1.19274 601.776 613.334 
323 0.4572 0.4572 0 8.99172e-06 8.99172e-06 7.63656e-09 0.882708 507.506 515.246 
363 0.557 0.557 0 5.93491e-06 5.93491e-06 1.65189e-08 0.0495801 49.5117 51.1986 
403 0.5448 0.5448 0 5.98996e-06 5.98996e-06 2.35416e-08 0.0480462 50.5207 51.8477 
443 0.534 0.534 0 6.05072e-06 6.05072e-06 -1.90311e-08 0.0474314 50.5326 51.9656 
483 0.5124 0.5124 0 5.84554e-06 5.84554e-06 -3.44748e-08 0.0448385 48.0563 49.2556 
523 0.5028 0.5028 0 5.67312e-06 5.67312e-06 -1.49345e-08 0.0445516 47.2905 48.3665 
563 0.5184 0.5184 0 5.99456e-06 5.99456e-06 2.46132e-08 0.0458088 50.4924 51.6173 
603 0.5066 0.5066 0 5.85508e-06 5.85508e-06 2.24376e-08 0.0451319 48.8082 49.6867 
643 0.0028 0.0028 0 -1.57389e-09 -1.57389e-09 -3.79098e-09 0.00264112 1.68648 1.85754 
683 0.0002 0.0002 0 -1.25579e-09 -1.25579e-09 -1.10572e-09 1.25579e-05 0.00879195 0.00440944 
723 0.0004 0.0004 0 -3.20965e-09 -3.20965e-09 1.33645e-10 3.20965e-05 0.00366729 0.00446838 
763 0.0002 0.0002 0 -9.2206e-10 -9.2206e-10 8.37563e-10 9.2206e-06 0.00807119 0.00657025 
803 0.0006 0.0006 0 -3.91874e-09 -3.91874e-09 3.78929e-09 3.91874e-05 0.0234 0.0288764 
843 0.0002 0.0002 0 -1.38986e-09 -1.38986e-09 0 1.38986e-05 0 0 
883 0.0006 0.0006 0 -2.8323e-09 -2.8323e-09 -7.15173e-10 2.8323e-05 0.0125306 0.00675864 
923 0.0002 0.0002 0 -2.08354e-09 -2.08354e-09 -8.21386e-10 2.08354e-05 0.00372464 0.00844507 
963 0.003 0.003 0 8.17467e-09 8.17467e-09 5.20005e-11 0.00273435 1.97177 2.15298 
1003 0.5028 0.5028 0 5.75925e-06 5.75925e-06 -2.88455e-08 0.0445522 48.1126 48.9578 
1043 0.5218 0.5218 0 5.76857e-06 5.76857e-06 6.00741e-08 0.0470575 47.7263 49.0365 
1083 0.5238 0.5238 0 5.99603e-06 5.99603e-06 4.33396e-08 0.0460838 49.069 50.1391 
1123 0.5264 0.5264 0 5.90805e-06 5.90805e-06 -1.65525e-08 0.0468176 49.3378 50.4314 
1163 0.5322 0.5322 0 5.99878e-06 5.99878e-06 5.85873e-08 0.0469941 49.5908 50.7425 
1203 0.5592 0.5592 0 6.1282e-06 6.1282e-06 -3.28184e-08 0.0503191 51.5794 53.0512 
1243 0.5614 0.5614 0 5.88366e-06 5.88366e-06 4.16885e-08 0.050723 48.7738 50.317 
4 0.2344 0.2344 0 3.68691e-06 3.68691e-06 3.19416e-08 0.30673 254.8 257.046 
44 5.783 5.783 0 0.000118334 0.000118334 7.90046e-08 1.18334 594.336 605.612 
84 5.8274 5.8274 0 0.000117765 0.000117765 1.01753e-07 1.17765 591.797 603.333 
124 5.8332 5.8332 0 0.000117088 0.000117088 3.87646e-07 1.17088 587.44 600.186 
164 5.8406 5.8406 0 0.000117176 0.000117176 7.77668e-08 1.17176 584.633 597.25 
204 5.8542 5.8542 0 0.000117034 0.000117034 -1.13986e-07 1.17034 586.449 600.163 
244 5.7968 5.7968 0 0.000117169 0.000117169 4.33572e-08 1.17169 589.822 602.85 
284 5.7616 5.7616 0 0.000117537 0.000117537 -8.60378e-08 1.17537 593.637 604.477 
324 0.4228 0.4228 0 8.13903e-06 8.13903e-06 -6.84598e-08 0.792343 464.684 468.499 
364 0.566 0.566 0 6.03611e-06 6.03611e-06 -1.82174e-08 0.0499064 49.7451 51.2674 
404 0.5464 0.5464 0 6.02246e-06 6.02246e-06 -6.96478e-08 0.0487775 49.0374 50.4904 
444 0.5282 0.5282 0 5.92476e-06 5.92476e-06 9.78023e-08 0.0470211 49.2503 50.6874 
484 0.5306 0.5306 0 5.98591e-06 5.98591e-06 5.19677e-08 0.047454 50.5937 51.7783 
524 0.5198 0.5198 0 5.87396e-06 5.87396e-06 -2.00332e-08 0.0461445 48.6273 49.8702 
564 0.507 0.507 0 5.68127e-06 5.68127e-06 -6.11303e-08 0.0450543 48.2702 49.3745 
604 0.4882 0.4882 0 5.60263e-06 5.60263e-06 7.60439e-08 0.0438654 47.133 48.2425 
644 0.002 0.002 0 1.61168e-09 1.61168e-09 -1.70063e-09 0.0015298 1.38005 1.34558 
684 0.0006 0.0006 0 -3.38542e-09 -3.38542e-09 -2.63651e-09 3.38542e-05 0.0155724 0.0175309 
724 0.0002 0.0002 0 -1.29341e-09 -1.29341e-09 6.87802e-10 1.29341e-05 0.00355619 0.00526325 
764 0.0004 0.0004 0 -1.20789e-09 -1.20789e-09 5.65146e-10 1.20789e-05 0.000877378 -0.000391832 
804 0.0006 0.0006 0 -4.34467e-09 -4.34467e-09 -2.66898e-09 4.34467e-05 0.00112639 0.00606034 
844 0 0 0 0 0 0 0 0 0 
884 0.0004 0.0004 0 -2.87028e-09 -2.87028e-09 7.00113e-10 2.87028e-05 0.0373559 0.0340027 
924 0 0 0 0 0 0 0 0 0 
964 0.0054 0.0054 0 -5.10328e-09 -5.10328e-09 4.77252e-09 0.00479478 1.74994 1.74617 
1004 0.507 0.507 0 5.78852e-06 5.78852e-06 2.36517e-08 0.0454651 48.7386 49.6654 
1044 0.4948 0.4948 0 5.67153e-06 5.67153e-06 -9.57162e-09 0.0435751 47.8754 48.3253 
1084 0.5284 0.5284 0 5.85167e-06 5.85167e-06 7.34321e-08 0.0462469 49.0276 49.8773 
1124 0.5184 0.5184 0 5.77086e-06 5.77086e-06 -2.05805e-08 0.0461582 48.1999 49.3499 
1164 0.5248 0.5248 0 5.98674e-06 5.98674e-06 4.9701e-08 0.0464636 49.627 50.6742 
1204 0.5496 0.5496 0 6.07655e-06 6.07655e-06 4.40097e-08 0.0490354 50.103 51.7143 
1244 0.5686 0.5686 0 6.16113e-06 6.16113e-06 4.16856e-08 0.0504182 51.3909 52.6516 
5 0.2938 0.2938 0 4.8634e-06 4.8634e-06 1.32641e-08 0.421621 332.506 336.747 
45 5.7964 5.7964 0 0.000118086 0.000118086 1.89957e-07 1.18086 601.383 612.901 
85 5.8158 5.8158 0 0.000117696 0.000117696 -8.69657e-08 1.17696 587.108 598.998 
125 5.811 5.811 0 0.000116859 0.000116859 -4.58255e-08 1.16859 584.8 597.164 
165 5.759 5.759 0 0.000115524 0.000115524 2.92827e-08 1.15524 579.77 591.396 
205 5.8068 5.8068 0 0.000116369 0.000116369 -2.49431e-09 1.16369 581.227 593.552 
245 5.8292 5.8292 0 0.00011752 0.00011752 -6.91185e-08 1.1752 590.35 602.628 
285 5.821 5.821 0 0.000119254 0.000119254 -1.42723e-07 1.19254 598.205 609.497 
325 0.3894 0.3894 0 7.22893e-06 7.22893e-06 -1.59293e-08 0.690165 433.25 439.384 
365 0.5492 0.5492 0 6.04234e-06 6.04234e-06 -4.40944e-08 0.0489726 50.1949 51.8023 
405 0.5496 0.5496 0 5.9836e-06 5.9836e-06 3.60768e-08 0.048678 49.9556 51.2668 
445 0.5424 0.5424 0 5.92237e-06 5.92237e-06 -6.11912e-08 0.0481551 48.9813 50.2972 
485 0.5314 0.5314 0 6.02942e-06 6.02942e-06 3.55242e-08 0.0470026 50.1051 51.3277 
525 0.5258 0.5258 0 5.85967e-06 5.85967e-06 -4.13377e-08 0.0475245 49.383 50.5516 
565 0.5114 0.5114 0 5.78285e-06 5.78285e-06 2.50309e-08 0.0454037 48.894 49.7594 
605 0.504 0.504 0 5.77655e-06 5.77655e-06 5.12388e-08 0.0446023 48.5056 49.3551 
645 0.0014 0.0014 0 -6.03444e-09 -6.03444e-09 -1.88781e-09 0.00128265 0.547972 0.531901 
685 0.0002 0.0002 0 -7.5105e-10 -7.5105e-10 5.12648e-10 7.5105e-06 0.00444935 0.00956919 
725 0 0 0 0 0 0 0 0 0 
765 0.0002 0.0002 0 -9.92168e-10 -9.92168e-10 -2.78369e-10 9.92168e-06 0.0173583 0.0164234 
805 0.0004 0.0004 0 -2.40043e-09 -2.40043e-09 -1.49518e-09 2.40043e-05 -0.00320914 -0.00429187 
845 0.0002 0.0002 0 -2.06589e-09 -2.06589e-09 4.839e-11 2.06589e-05 0.00639989 0.0090488 
885 0.0004 0.0004 0 -2.18067e-09 -2.18067e-09 5.25554e-10 2.18067e-05 0.00466462 0.00461376 
925 0.0002 0.0002 0 -1.32418e-09 -1.32418e-09 -3.69662e-10 1.32418e-05 0.00204192 -0.00158076 
965 0.0068 0.0068 0 2.37233e-08 2.37233e-08 -8.8004e-10 0.00703977 4.56194 5.03046 
1005 0.4944 0.4944 0 5.7371e-06 5.7371e-06 -4.28929e-08 0.0435787 47.8338 48.8891 
1045 0.5044 0.5044 0 5.64936e-06 5.64936e-06 2.95418e-08 0.0446382 47.4034 48.4939 
1085 0.5246 0.5246 0 5.98845e-06 5.98845e-06 2.9774e-08 0.047042 50.4385 51.3764 
1125 0.5168 0.5168 0 5.74017e-06 5.74017e-06 -2.92354e-08 0.0451035 47.2787 48.542 
1165 0.5204 0.5204 0 5.74258e-06 5.74258e-06 -4.94562e-08 0.047079 48.1504 49.2345 
1205 0.5548 0.5548 0 6.13589e-06 6.13589e-06 2.70315e-08 0.0494295 50.6892 51.9844 
1245 0.5494 0.5494 0 5.86303e-06 5.86303e-06 5.05547e-08 0.0491189 48.82 49.731 
6 0.3252 0.3252 0 5.64397e-06 5.64397e-06 -9.6787e-09 0.511753 363.434 366.673 
46 5.7712 5.7712 0 0.000118334 0.000118334 1.92409e-07 1.18334 593.038 602.921 
86 5.8298 5.8298 0 0.000117571 0.000117571 -1.44526e-07 1.17571 592.594 604.699 
126 5.7814 5.7814 0 0.000116472 0.000116472 -2.4417e-07 1.16472 582.439 594.69 
166 5.8262 5.8262 0 0.000116444 0.000116444 -1.32801e-07 1.16444 584.877 598.014 
206 5.8424 5.8424 0 0.000117268 0.000117268 5.8039e-08 1.17268 585.988 598.789 
246 5.8456 5.8456 0 0.00011773 0.00011773 -5.92404e-07 1.1773 592.113 604.612 
286 5.7798 5.7798 0 0.000118223 0.000118223 -8.14849e-08 1.18223 600.632 611.834 
326 0.3472 0.3472 0 6.17569e-06 6.17569e-06 5.54974e-09 0.574334 386.667 391.39 
366 0.5864 0.5864 0 6.23221e-06 6.23221e-06 -5.83466e-09 0.053564 51.7503 53.1871 
406 0.5694 0.5694 0 6.13722e-06 6.13722e-06 1.1812e-08 0.0496456 50.8776 52.163 
446 0.5382 0.5382 0 6.01029e-06 6.01029e-06 1.4199e-08 0.0480976 49.9347 51.0669 
486 0.5188 0.5188 0 5.9639e-06 5.9639e-06 1.1797e-07 0.0454233 49.1814 50.4568 
526 0.5136 0.5136 0 5.79968e-06 5.79968e-06 -3.07086e-08 0.0454399 48.3141 49.408 
566 0.5144 0.5144 0 5.79696e-06 5.79696e-06 1.8164e-08 0.0458742 48.2798 49.3278 
606 0.5022 0.5022 0 5.80413e-06 5.80413e-06 1.4545e-08 0.0446724 48.7496 49.6813 
646 0.0002 0.0002 0 4.40449e-10 4.40449e-10 1.32986e-09 8.40057e-05 0.204456 0.365558 
686 0.0004 0.0004 0 -3.15195e-09 -3.15195e-09 -6.59544e-10 3.15195e-05 0.00504201 0.00434473 
726 0.0004 0.0004 0 -1.2506e-09 -1.2506e-09 -1.58468e-09 1.2506e-05 -0.000679231 9.82442e-05 
766 0 0 0 0 0 0 0 0 0 
806 0.0006 0.0006 0 -3.21133e-09 -3.21133e-09 3.93102e-10 3.21133e-05 0.0217796 0.0313763 
846 0.0004 0.0004 0 -1.2635e-09 -1.2635e-09 -3.15481e-10 1.2635e-05 0.00975214 0.00322884 
886 0.0002 0.0002 0 -1.07858e-09 -1.07858e-09 3.95681e-09 1.07858e-05 0.0216651 0.0209555 
926 0.0002 0.0002 0 -6.6988e-10 -6.6988e-10 -6.3718e-10 6.6988e-06 -0.000163692 0.000166709 
966 0.0076 0.0076 0 2.15598e-08 2.15598e-08 -3.15372e-09 0.00807618 4.59848 5.13681 
1006 0.5008 0.5008 0 5.77263e-06 5.77263e-06 -6.16131e-08 0.0440631 47.7823 48.7425 
1046 0.5082 0.5082 0 5.95162e-06 5.95162e-06 -5.04017e-08 0.0455249 49.4742 50.3054 
1086 0.5212 0.5212 0 5.9066e-06 5.9066e-06 5.18938e-08 0.0466218 48.5653 49.8483 
1126 0.5316 0.5316 0 6.01829e-06 6.01829e-06 -9.74155e-09 0.046706 49.86 51.0508 
1166 0.5292 0.5292 0 5.90735e-06 5.90735e-06 -1.23803e-08 0.0468156 49.0557 49.9288 
1206 0.5534 0.5534 0 6.01473e-06 6.01473e-06 1.12634e-08 0.0489785 50.2866 51.6212 
1246 0.5658 0.5658 0 6.00428e-06 6.00428e-06 1.613e-08 0.0507271 50.1357 51.6693 
7 0.3578 0.3578 0 6.39658e-06 6.39658e-06 -6.24385e-09 0.593855 398.636 403.279 
47 5.7854 5.7854 0 0.000118361 0.000118361 2.80443e-07 1.18361 598.089 608.993 
87 5.7908 5.7908 0 0.000117695 0.000117695 2.18224e-07 1.17695 586.764 598.998 
127 5.8242 5.8242 0 0.000117122 0.000117122 3.02679e-07 1.17122 587.669 599.704 
167 5.7804 5.7804 0 0.000115478 0.000115478 -6.16876e-08 1.15478 578.98 591.172 
207 5.8546 5.8546 0 0.000117509 0.000117509 -1.54317e-07 1.17509 586.097 599.096 
247 5.79 5.79 0 0.000116972 0.000116972 -1.30436e-07 1.16972 587.052 598.843 
287 5.7792 5.7792 0 0.000118502 0.000118502 -6.33378e-08 1.18502 596.59 607.069 
327 0.3186 0.3186 0 5.52611e-06 5.52611e-06 1.23043e-08 0.49666 358.784 362.38 
367 0.5706 0.5706 0 6.11642e-06 6.11642e-06 8.3501e-08 0.05007 50.2758 51.7157 
407 0.5346 0.5346 0 5.94191e-06 5.94191e-06 5.07345e-09 0.0469885 48.5237 49.866 
447 0.5262 0.5262 0 5.94446e-06 5.94446e-06 6.09404e-08 0.0454953 48.5279 49.6086 
487 0.506 0.506 0 5.57529e-06 5.57529e-06 -4.60445e-08 0.0446963 46.1821 47.3849 
527 0.5242 0.5242 0 5.93202e-06 5.93202e-06 1.59009e-08 0.0468864 49.7379 51.0062 
567 0.5076 0.5076 0 5.77738e-06 5.77738e-06 1.48065e-08 0.0451691 47.8034 48.8986 
607 0.4798 0.4798 0 5.69185e-06 5.69185e-06 -4.20104e-09 0.042048 46.6353 47.7175 
647 0.0002 0.0002 0 -2.23599e-10 -2.23599e-10 -9.0466e-10 0.000172839 0.256979 0.25714 
687 0.0002 0.0002 0 -1.57535e-09 -1.57535e-09 -6.10142e-11 1.57535e-05 -0.000414714 -0.000145876 
727 0.0004 0.0004 0 -1.92048e-09 -1.92048e-09 -1.0041e-09 1.92048e-05 0.0124088 0.0111343 
767 0.0002 0.0002 0 -1.37492e-09 -1.37492e-09 1.17525e-09 1.37492e-05 0.00190089 -0.000662089 
807 0 0 0 0 0 0 0 0 0 
847 0 0 0 0 0 0 0 0 0 
887 0.0002 0.0002 0 -8.61027e-10 -8.61027e-10 -1.85685e-10 8.61027e-06 0.00780144 0.00946814 
927 0.001 0.001 0 -4.62354e-09 -4.62354e-09 1.18483e-09 4.62354e-05 0.00450988 0.00413442 
967 0.0126 0.0126 0 8.01921e-08 8.01921e-08 -3.94978e-09 0.0126825 8.52372 8.78768 
1007 0.499 0.499 0 5.74427e-06 5.74427e-06 -4.46397e-08 0.0444654 48.6097 49.5693 
1047 0.5126 0.5126 0 5.95917e-06 5.95917e-06 -1.87974e-08 0.0451118 49.8567 51.0011 
1087 0.521 0.521 0 5.86426e-06 5.86426e-06 2.4695e-08 0.0458435 48.2077 49.2225 
1127 0.5222 0.5222 0 5.86553e-06 5.86553e-06 -6.00761e-09 0.0467821 49.3316 50.3506 
1167 0.5386 0.5386 0 5.86734e-06 5.86734e-06 4.95633e-08 0.0483377 48.9705 50.139 
1207 0.5356 0.5356 0 5.84215e-06 5.84215e-06 -1.23942e-08 0.0479388 48.7653 49.6615 
1247 0.5764 0.5764 0 6.25948e-06 6.25948e-06 1.83185e-08 0.051143 52.9267 54.6849 
8 0.4214 0.4214 0 7.88788e-06 7.88788e-06 8.99425e-09 0.751944 473.129 479.077 
48 5.8108 5.8108 0 0.000118775 0.000118775 -1.36956e-08 1.18775 600.387 612.733 
88 5.8612 5.8612 0 0.000118037 0.000118037 2.57832e-07 1.18037 592.282 604.951 
128 5.807 5.807 0 0.00011584 0.00011584 1.23627e-07 1.1584 579.996 592.451 
168 5.8358 5.8358 0 0.00011688 0.00011688 -1.18857e-07 1.1688 582.241 595.788 
208 5.8216 5.8216 0 0.000116274 0.000116274 -2.6456e-07 1.16274 580.668 593.436 
248 5.7874 5.7874 0 0.000117094 0.000117094 1.62084e-07 1.17094 586.346 599.324 
288 5.7926 5.7926 0 0.000118548 0.000118548 1.92283e-07 1.18548 600.422 612.944 
328 0.2816 0.2816 0 4.71236e-06 4.71236e-06 4.26919e-08 0.402502 324.126 329.294 
368 0.5584 0.5584 0 6.01363e-06 6.01363e-06 2.14467e-08 0.050097 49.778 51.4093 
408 0.559 0.559 0 6.22105e-06 6.22105e-06 -2.01694e-08 0.0507497 51.9134 53.0024 
448 0.5268 0.5268 0 5.84485e-06 5.84485e-06 5.36801e-09 0.0470851 48.1953 49.5505 
488 0.526 0.526 0 5.88592e-06 5.88592e-06 7.86737e-09 0.0471265 50.0195 51.0804 
528 0.4996 0.4996 0 5.68453e-06 5.68453e-06 5.39359e-08 0.0439102 47.8651 48.5404 
568 0.524 0.524 0 6.16636e-06 6.16636e-06 5.38418e-08 0.0464027 50.8894 51.9655 
608 0.5166 0.5166 0 6.05008e-06 6.05008e-06 -1.9516e-09 0.0452389 50.269 51.3026 
648 0 0 0 0 0 0 0 0 0 
688 0.0004 0.0004 0 -2.17925e-09 -2.17925e-09 3.75018e-10 2.17925e-05 0.00396818 0.00468 
728 0 0 0 0 0 0 0 0 0 
768 0.0004 0.0004 0 -2.38416e-09 -2.38416e-09 -1.1897e-09 2.38416e-05 0.0140696 0.0156862 
808 0.0008 0.0008 0 -5.45969e-09 -5.45969e-09 -2.06831e-10 5.45969e-05 0.0704842 0.0743801 
848 0 0 0 0 0 0 0 0 0 
888 0 0 0 0 0 0 0 0 0 
928 0.0004 0.0004 0 -1.82434e-09 -1.82434e-09 -1.92616e-09 1.82434e-05 0.0220496 0.0212478 
968 0.0228 0.0228 0 2.06526e-07 2.06526e-07 -1.74338e-08 0.0214458 17.7353 18.8397 
1008 0.5058 0.5058 0 5.84934e-06 5.84934e-06 -9.64316e-08 0.0438481 48.3416 49.2967 
1048 0.5196 0.5196 0 5.85498e-06 5.85498e-06 2.61162e-08 0.0461216 48.364 49.0667 
1088 0.4966 0.4966 0 5.71381e-06 5.71381e-06 5.95253e-08 0.043629 47.1178 48.2995 
1128 0.5148 0.5148 0 5.66178e-06 5.66178e-06 1.31206e-07 0.0457419 47.6554 48.7678 
1168 0.549 0.549 0 6.08364e-06 6.08364e-06 -1.37104e-08 0.0496523 51.2051 52.5002 
1208 0.5482 0.5482 0 5.95059e-06 5.95059e-06 -1.42442e-08 0.0486817 49.371 50.5878 
1248 0.5766 0.5766 0 6.15761e-06 6.15761e-06 1.35249e-08 0.0509419 51.4244 52.839 
9 0.4434 0.4434 0 8.40641e-06 8.40641e-06 4.59573e-08 0.816292 489.252 494.83 
49 5.7966 5.7966 0 0.000118884 0.000118884 2.98381e-08 1.18884 599.517 610.815 
89 5.7404 5.7404 0 0.000115971 0.000115971 -2.4728e-08 1.15971 578.929 591.315 
129 5.7434 5.7434 0 0.000115192 0.000115192 1.28576e-07 1.15192 580.509 592.9 
169 5.818 5.818 0 0.000116281 0.000116281 1.54059e-07 1.16281 579.703 593.047 
209 5.8184 5.8184 0 0.000116654 0.000116654 2.77038e-07 1.16654 579.389 592.696 
249 5.8074 5.8074 0 0.000117176 0.000117176 6.32131e-08 1.17176 585.011 596.712 
289 5.826 5.826 0 0.000119132 0.000119132 -2.66829e-07 1.19132 598.146 610.487 
329 0.228 0.228 0 3.56614e-06 3.56614e-06 -1.94773e-09 0.295916 252.233 252.841 
369 0.5634 0.5634 0 6.03563e-06 6.03563e-06 -2.97114e-09 0.0495316 49.6339 51.1686 
409 0.5194 0.5194 0 5.68676e-06 5.68676e-06 5.43158e-08 0.0453342 46.4608 47.8059 
449 0.524 0.524 0 5.7789e-06 5.7789e-06 -7.8821e-09 0.0468159 47.9634 49.0869 
489 0.5106 0.5106 0 5.73706e-06 5.73706e-06 6.23135e-08 0.0448514 47.039 48.1296 
529 0.5076 0.5076 0 5.76337e-06 5.76337e-06 2.06101e-08 0.0449691 47.5974 48.6146 
569 0.4966 0.4966 0 5.70706e-06 5.70706e-06 -6.70874e-08 0.0446356 47.2058 47.9106 
609 0.521 0.521 0 6.18022e-06 6.18022e-06 2.89542e-08 0.0461287 51.8714 52.6016 
649 0 0 0 0 0 0 0 0 0 
689 0.0002 0.0002 0 -8.89797e-10 -8.89797e-10 1.86234e-10 8.89797e-06 0.000279131 0.00274503 
729 0.0002 0.0002 0 -7.34278e-10 -7.34278e-10 7.03041e-10 7.34278e-06 -0.00279194 -0.00340738 
769 0.0004 0.0004 0 -2.80826e-09 -2.80826e-09 -5.00368e-10 2.80826e-05 0.00810066 0.00568616 
809 0.0002 0.0002 0 -1.18541e-09 -1.18541e-09 -1.19681e-09 1.18541e-05 -0.00695199 -0.00654107 
849 0 0 0 0 0 0 0 0 0 
889 0 0 0 0 0 0 0 0 0 
929 0.0002 0.0002 0 -1.21731e-09 -1.21731e-09 5.06391e-10 1.21731e-05 0.00127759 0.00032778 
969 0.0352 0.0352 0 3.87505e-07 3.87505e-07 2.05445e-09 0.0303784 33.9476 34.9508 
1009 0.5184 0.5184 0 6.00648e-06 6.00648e-06 9.92838e-09 0.046045 50.1933 51.0664 
1049 0.5018 0.5018 0 5.79606e-06 5.79606e-06 1.01262e-07 0.0439928 47.7674 48.7587 
1089 0.5178 0.5178 0 5.91742e-06 5.91742e-06 -6.29233e-09 0.0461128 49.7496 50.9333 
1129 0.5438 0.5438 0 6.14797e-06 6.14797e-06 -5.04723e-09 0.047521 50.9919 52.4112 
1169 0.5498 0.5498 0 6.04281e-06 6.04281e-06 -9.39893e-08 0.0497024 50.5736 51.6771 
1209 0.5484 0.5484 0 6.04255e-06 6.04255e-06 -1.80631e-08 0.0477849 50.1327 51.4038 
1249 0.569 0.569 0 6.03265e-06 6.03265e-06 -3.11916e-08 0.0514933 50.1286 51.5446 
10 0.4668 0.4668 0 9.28715e-06 9.28715e-06 -4.40672e-08 0.919674 510.552 516.738 
50 5.741 5.741 0 0.000117542 0.000117542 -2.58106e-07 1.17542 589.775 600.528 
90 5.8098 5.8098 0 0.000117177 0.000117177 1.63843e-07 1.17177 587.325 598.769 
130 5.8264 5.8264 0 0.0001167 0.0001167 -5.83449e-08 1.167 586.23 598.302 
170 5.8506 5.8506 0 0.000117203 0.000117203 1.02875e-07 1.17203 585.97 598.873 
210 5.8242 5.8242 0 0.000116825 0.000116825 -2.7726e-08 1.16825 585.673 597.668 
250 5.8024 5.8024 0 0.000116839 0.000116839 3.19041e-07 1.16839 588.302 601.032 
290 5.7818 5.7818 0 0.000118305 0.000118305 5.8785e-08 1.18305 597.868 609.673 
330 0.1968 0.1968 0 2.97192e-06 2.97192e-06 -1.29721e-09 0.232289 216.118 220.233 
370 0.5306 0.5306 0 5.6398e-06 5.6398e-06 -1.57502e-08 0.0482061 46.6252 47.7783 
410 0.5446 0.5446 0 6.12285e-06 6.12285e-06 8.70353e-08 0.0476759 51.0885 52.3183 
450 0.5244 0.5244 0 5.87721e-06 5.87721e-06 -6.16317e-09 0.0461161 49.0159 50.5826 
490 0.5384 0.5384 0 5.8689e-06 5.8689e-06 -9.04947e-08 0.0478844 49.1426 50.2757 
530 0.5174 0.5174 0 5.76589e-06 5.76589e-06 8.20636e-09 0.0458909 48.6209 49.6077 
570 0.4998 0.4998 0 5.76711e-06 5.76711e-06 5.16517e-08 0.0445014 47.8684 48.8308 
610 0.4892 0.4892 0 5.651e-06 5.651e-06 4.21097e-08 0.0430456 48.0583 48.8919 
650 0 0 0 0 0 0 0 0 0 
690 0 0 0 0 0 0 0 0 0 
730 0.0002 0.0002 0 -1.60962e-10 -1.60962e-10 0 1.60962e-06 0 0 
770 0.0002 0.0002 0 -1.0468e-09 -1.0468e-09 -1.01921e-09 1.0468e-05 0.00318239 0.00238956 
810 0.0004 0.0004 0 -2.50522e-09 -2.50522e-09 0 2.50522e-05 0 0 
850 0 0 0 0 0 0 0 0 0 
890 0.0002 0.0002 0 -1.29628e-09 -1.29628e-09 1.06513e-09 1.29628e-05 -0.00230968 -0.0014759 
930 0.0006 0.0006 0 -2.09227e-09 -2.09227e-09 1.20525e-09 2.09227e-05 0.00467692 0.00686278 
970 0.125 0.125 0 1.45504e-06 1.45504e-06 -2.48653e-08 0.0457101 49.1498 49.6012 
1010 0.5036 0.5036 0 5.74438e-06 5.74438e-06 2.66933e-09 0.0447575 48.4983 49.6008 
1050 0.528 0.528 0 6.15516e-06 6.15516e-06 -2.60463e-08 0.0465354 51.671 52.9677 
1090 0.5124 0.5124 0 5.75551e-06 5.75551e-06 -5.40656e-08 0.0464344 48.3104 49.129 
1130 0.546 0.546 0 6.01862e-06 6.01862e-06 -5.01351e-08 0.0480899 50.3487 51.6102 
1170 0.5352 0.5352 0 5.96822e-06 5.96822e-06 -6.0349e-08 0.0469277 50.1312 51.2788 
1210 0.5428 0.5428 0 5.77632e-06 5.77632e-06 1.02559e-08 0.0482399 47.8935 48.984 
1250 0.5746 0.5746 0 6.11553e-06 6.11553e-06 -2.38081e-08 0.0509519 51.0477 52.4558 
11 0.5016 0.5016 0 1.00286e-05 1.00286e-05 -5.50089e-08 1.00162 549.369 558.464 
51 5.8138 5.8138 0 0.000118903 0.000118903 -5.10666e-08 1.18903 597.986 609.788 
91 5.7432 5.7432 0 0.000116363 0.000116363 4.80263e-08 1.16363 582.352 594.052 
131 5.8222 5.8222 0 0.000117202 0.000117202 -1.56829e-07 1.17202 585.684 598.478 
171 5.8508 5.8508 0 0.000117036 0.000117036 -1.72299e-07 1.17036 585.393 597.631 
211 5.8386 5.8386 0 0.000116798 0.000116798 2.38902e-07 1.16798 581.255 593.509 
251 5.8186 5.8186 0 0.000117888 0.000117888 1.17168e-07 1.17888 587.261 598.628 
291 5.844 5.844 0 0.000119784 0.000119784 -2.09986e-07 1.19784 606.209 616.683 
331 0.1502 0.1502 0 2.11988e-06 2.11988e-06 -2.10406e-08 0.160871 159.572 160.763 
371 0.5472 0.5472 0 5.86412e-06 5.86412e-06 -1.26645e-08 0.048833 48.2079 49.6827 
411 0.5418 0.5418 0 5.91631e-06 5.91631e-06 5.07942e-09 0.0478564 49.2304 50.4574 
451 0.5204 0.5204 0 5.67385e-06 5.67385e-06 -1.27483e-07 0.0462532 47.1711 48.2773 
491 0.52 0.52 0 5.58556e-06 5.58556e-06 3.33176e-09 0.0465734 46.3384 47.5331 
531 0.509 0.509 0 5.82066e-06 5.82066e-06 4.25294e-08 0.0454078 48.5847 49.7436 
571 0.4974 0.4974 0 5.79539e-06 5.79539e-06 1.52366e-08 0.0440032 48.2279 49.2172 
611 0.504 0.504 0 5.90434e-06 5.90434e-06 -2.26912e-08 0.0448332 49.3449 50.4673 
651 0 0 0 0 0 0 0 0 0 
691 0 0 0 0 0 0 0 0 0 
731 0.0002 0.0002 0 -1.49249e-09 -1.49249e-09 1.85295e-09 1.49249e-05 0.00515237 0.00528119 
771 0.0006 0.0006 0 -3.38155e-09 -3.38155e-09 1.07516e-10 3.38155e-05 0.0358952 0.0317075 
811 0 0 0 0 0 0 0 0 0 
851 0 0 0 0 0 0 0 0 0 
891 0.0002 0.0002 0 -7.35646e-10 -7.35646e-10 1.15128e-09 7.35646e-06 0.00507467 0.00778569 
931 0.0004 0.0004 0 -1.9045e-09 -1.9045e-09 9.36945e-10 1.9045e-05 0.0125285 0.0185645 
971 0.1248 0.1248 0 1.4347e-06 1.4347e-06 1.33868e-08 0.0442519 45.8969 46.7443 
1011 0.4986 0.4986 0 5.77352e-06 5.77352e-06 7.78256e-08 0.0450528 47.6047 48.2706 
1051 0.5112 0.5112 0 5.87908e-06 5.87908e-06 1.00895e-08 0.0456234 49.0954 50.1993 
1091 0.5232 0.5232 0 6.04014e-06 6.04014e-06 2.24163e-08 0.0460094 50.6785 51.8687 
1131 0.5312 0.5312 0 5.88172e-06 5.88172e-06 1.27872e-08 0.0474837 49.8236 50.9544 
1171 0.5544 0.5544 0 6.16868e-06 6.16868e-06 -3.82494e-08 0.0493945 51.4388 52.5571 
1211 0.542 0.542 0 5.92149e-06 5.92149e-06 4.28988e-08 0.0473715 48.9263 50.2948 
1251 0.554 0.554 0 5.96251e-06 5.96251e-06 -3.85177e-08 0.049637 49.3564 50.6631 
12 0.501 0.501 0 1.02157e-05 1.02157e-05 -2.13388e-08 1.02825 537.002 544.084 
52 5.7678 5.7678 0 0.00011733 0.00011733 3.53187e-07 1.1733 593.846 604.96 
92 5.8022 5.8022 0 0.000116913 0.000116913 -6.66691e-08 1.16913 582.695 595.698 
132 5.7836 5.7836 0 0.000116484 0.000116484 -9.93859e-08 1.16484 582.045 594.974 
172 5.7966 5.7966 0 0.000116485 0.000116485 -4.66016e-07 1.16485 577.069 589.033 
212 5.781 5.781 0 0.000115981 0.000115981 3.58807e-07 1.15981 577.19 589.424 
252 5.8218 5.8218 0 0.000117664 0.000117664 3.51112e-08 1.17664 592.602 603.777 
292 5.819 5.819 0 0.000119008 0.000119008 2.36596e-07 1.19008 597.727 608.214 
332 0.107 0.107 0 1.31768e-06 1.31768e-06 -7.50048e-09 0.105313 105.626 108.67 
372 0.5546 0.5546 0 5.89714e-06 5.89714e-06 -3.28633e-08 0.049446 49.0672 50.5753 
412 0.5464 0.5464 0 5.83762e-06 5.83762e-06 3.94355e-08 0.0492415 48.9786 50.2401 
452 0.517 0.517 0 5.62344e-06 5.62344e-06 -2.16972e-08 0.0463556 47.6516 48.7957 
492 0.5366 0.5366 0 6.07591e-06 6.07591e-06 5.99129e-08 0.0478744 50.4534 51.5557 
532 0.5128 0.5128 0 5.90123e-06 5.90123e-06 9.92645e-08 0.0448442 49.0906 49.9864 
572 0.4998 0.4998 0 5.74059e-06 5.74059e-06 -5.57507e-08 0.0450675 47.4754 48.4142 
612 0.4996 0.4996 0 5.87452e-06 5.87452e-06 3.35298e-08 0.0451365 49.7592 50.4964 
652 0 0 0 0 0 0 0 0 0 
692 0 0 0 0 0 0 0 0 0 
732 0 0 0 0 0 0 0 0 0 
772 0 0 0 0 0 0 0 0 0 
812 0 0 0 0 0 0 0 0 0 
852 0.0002 0.0002 0 -1.39591e-09 -1.39591e-09 9.21347e-10 1.39591e-05 0.0111436 0.0103178 
892 0.0006 0.0006 0 -3.58556e-09 -3.58556e-09 3.5596e-10 3.58556e-05 0.0142791 0.0158857 
932 0.0002 0.0002 0 -6.74002e-10 -6.74002e-10 4.12905e-10 6.74002e-06 0.00278897 -7.07063e-05 
972 0.2476 0.2476 0 2.86045e-06 2.86045e-06 -5.43405e-09 0.0438711 47.654 48.6547 
1012 0.5182 0.5182 0 5.90475e-06 5.90475e-06 9.09001e-09 0.045617 48.7685 49.7314 