ITEM: TIMESTEP
25000
ITEM: NUMBER OF SURFS
1200
ITEM: BOX BOUNDS oo rr pp
0 0.3
0 0.3
-0.5 0.5
ITEM: SURFS id f_4[1] f_4[2] f_4[3] f_4[4] f_4[5] f_4[6] f_4[7] f_4[8] f_4[9] 
1 5.8002 5.8002 0 0.026602 0.026602 -7.28057e-05 266.02 40115.9 53056.1 
81 10.406 10.406 0 0.0431822 0.0431822 6.62243e-05 431.822 26959.3 37728.1 
161 10.6536 10.6536 0 0.0440408 0.0440408 -2.99158e-05 440.408 25592.4 35542.7 
241 10.1628 10.1628 0 0.04228 0.04228 5.98617e-05 422.8 28784.6 39187 
321 0.5888 0.5888 0 0.000862425 0.000862425 1.34683e-05 25.2061 4713.78 6250.38 
401 0.81 0.81 0 0.000716767 0.000716767 -6.05989e-06 36.437 5369.2 7375.51 
481 0.8632 0.8632 0 0.000611196 0.000611196 -9.29223e-06 38.1696 4652.62 6685.09 
561 0.8624 0.8624 0 0.000693853 0.000693853 4.00941e-07 37.8589 4834.51 6533.36 
641 0.131 0.131 0 -0.000542536 -0.000542536 3.89242e-06 5.42536 382.858 558.373 
721 0.2036 0.2036 0 -0.000876726 -0.000876726 -1.10001e-05 8.76726 761.491 1057.48 
801 0.193 0.193 0 -0.000822551 -0.000822551 -1.23288e-06 8.22551 645.857 1036.13 
881 0.0954 0.0954 0 -0.000373297 -0.000373297 -8.926e-06 3.73297 308.357 500.924 
961 0.9104 0.9104 0 0.000636229 0.000636229 -8.06344e-07 40.113 4903.56 6502.68 
1041 0.876 0.876 0 0.000670421 0.000670421 4.97201e-05 38.644 4793.88 6586.33 
1121 0.7764 0.7764 0 0.00075903 0.00075903 3.54675e-05 34.4723 5413.93 7161.55 
2 6.2004 6.2004 0 0.0277809 0.0277809 -1.68576e-05 277.809 37191.8 49695.4 
82 10.2996 10.2996 0 0.0429083 0.0429083 -9.95605e-06 429.083 26386.2 36569 
162 10.7478 10.7478 0 0.0441946 0.0441946 -2.31248e-05 441.946 25923.9 35026.4 
242 9.9734 9.9734 0 0.041785 0.041785 -8.55301e-05 417.85 27657.3 38301.1 
322 0.574 0.574 0 0.00083916 0.00083916 1.20077e-05 24.7046 4404.62 5922.84 
402 0.8298 0.8298 0 0.000654519 0.000654519 -2.63791e-05 37.2286 5071.52 7032.21 
482 0.883 0.883 0 0.000645659 0.000645659 -1.34918e-05 38.7279 4834.58 6644.44 
562 0.853 0.853 0 0.000629648 0.000629648 2.85805e-05 37.1248 4535.14 6278.05 
642 0.1236 0.1236 0 -0.000499546 -0.000499546 1.02604e-05 4.99546 355.288 519.149 
722 0.2232 0.2232 0 -0.000957327 -0.000957327 8.01802e-06 9.57327 681.263 981.476 
802 0.1924 0.1924 0 -0.000805571 -0.000805571 -1.1061e-05 8.05571 640.676 933.879 
882 0.0836 0.0836 0 -0.000330786 -0.000330786 5.13517e-06 3.30786 328.37 456.914 
962 0.8994 0.8994 0 0.000630292 0.000630292 -3.00707e-06 39.5259 4637.7 6423.43 
1042 0.888 0.888 0 0.000691157 0.000691157 4.06109e-05 39.3863 5184.59 7038.9 
1122 0.7688 0.7688 0 0.000782988 0.000782988 3.6815e-05 34.6503 5464.31 7348.78 
3 6.5124 6.5124 0 0.028984 0.028984 -7.0563e-05 289.84 36165 48881.6 
83 10.35 10.35 0 0.0430334 0.0430334 2.86447e-05 430.334 26837.5 37105.8 
163 10.729 10.729 0 0.0441873 0.0441873 -7.08369e-05 441.873 25648.6 35507.6 
243 10.066 10.066 0 0.0419735 0.0419735 -0.000140282 419.735 27532.2 38091.4 
323 0.5794 0.5794 0 0.000841093 0.000841093 1.67331e-05 25.1844 4443.1 5815.19 
403 0.8224 0.8224 0 0.000745928 0.000745928 2.94275e-05 36.6507 5160.23 7184.03 
483 0.9328 0.9328 0 0.000686644 0.000686644 4.27246e-05 40.8447 5083 6763.58 
563 0.8632 0.8632 0 0.000662598 0.000662598 4.28817e-05 37.7645 4608.93 6232.44 
643 0.1214 0.1214 0 -0.000506693 -0.000506693 2.82641e-06 5.06693 428.477 564.157 
723 0.1924 0.1924 0 -0.000837313 -0.000837313 1.57602e-06 8.37313 687.885 985.48 
803 0.1846 0.1846 0 -0.000814916 -0.000814916 -2.60692e-06 8.14916 635.552 956.284 
883 0.085 0.085 0 -0.000330817 -0.000330817 6.95579e-06 3.30817 230.727 348.471 
963 0.8844 0.8844 0 0.000635567 0.000635567 6.84161e-05 39.0504 4653.29 6260.4 
1043 0.8814 0.8814 0 0.000674712 0.000674712 5.85998e-05 39.0016 4676.13 6412.6 
1123 0.7626 0.7626 0 0.000775034 0.000775034 -2.19121e-05 33.9642 5228.35 6974.84 
4 6.9256 6.9256 0 0.0304646 0.0304646 -5.5613e-05 304.646 34774.3 47344 
84 10.5306 10.5306 0 0.0436061 0.0436061 -6.57913e-05 436.061 26215.8 36102.7 
164 10.6964 10.6964 0 0.0440606 0.0440606 -6.11045e-05 440.606 25085.3 34812.2 
244 10.1028 10.1028 0 0.042023 0.042023 -0.000184004 420.23 27961.7 38708.3 
324 0.5992 0.5992 0 0.000858274 0.000858274 -4.89062e-05 25.8682 4612.96 6210.33 
404 0.8156 0.8156 0 0.000677379 0.000677379 3.02475e-05 36.5862 5211.61 7040.23 
484 0.8642 0.8642 0 0.000674957 0.000674957 1.52337e-05 37.8517 4890.45 6592 
564 0.863 0.863 0 0.000671361 0.000671361 -4.8338e-05 37.889 4205.61 5860.08 
644 0.1298 0.1298 0 -0.000543447 -0.000543447 -2.10055e-05 5.43447 425.019 637.164 
724 0.2048 0.2048 0 -0.00089443 -0.00089443 -1.99784e-06 8.9443 778.874 1101.08 
804 0.1974 0.1974 0 -0.000837482 -0.000837482 1.70638e-06 8.37482 724.472 1034.63 
884 0.0776 0.0776 0 -0.000300261 -0.000300261 -2.24366e-05 3.00261 280.675 501.56 
964 0.9054 0.9054 0 0.00065244 0.00065244 -9.90034e-06 40.077 4657.41 6480.14 
1044 0.878 0.878 0 0.000684447 0.000684447 6.03067e-05 38.546 4909.62 6887.37 
1124 0.7736 0.7736 0 0.000709874 0.000709874 4.82695e-06 33.8253 4697.21 6484.38 
5 7.1232 7.1232 0 0.0312155 0.0312155 4.83788e-05 312.155 34347.9 47034.7 
85 10.3902 10.3902 0 0.0430591 0.0430591 7.0534e-05 430.591 26585.8 36660.2 
165 10.6282 10.6282 0 0.0438668 0.0438668 -3.5907e-05 438.668 24785.3 34380.6 
245 10.0228 10.0228 0 0.0419317 0.0419317 5.15937e-05 419.317 27853.4 38576.8 
325 0.6012 0.6012 0 0.000823084 0.000823084 5.80461e-06 26.0123 4469.42 6178.01 
405 0.818 0.818 0 0.000701632 0.000701632 -9.95709e-06 36.8175 5409.06 7232.63 
485 0.9134 0.9134 0 0.000669785 0.000669785 -1.62876e-05 40.0744 5144.14 7075.97 
565 0.8896 0.8896 0 0.000654579 0.000654579 -1.86099e-05 38.7953 4546.47 6271.93 
645 0.1362 0.1362 0 -0.000569408 -0.000569408 1.09418e-06 5.69408 454.245 685.832 
725 0.2074 0.2074 0 -0.000876022 -0.000876022 4.0002e-06 8.76022 701.734 989.031 
805 0.1898 0.1898 0 -0.00078463 -0.00078463 2.14314e-06 7.8463 680.709 932.57 
885 0.0812 0.0812 0 -0.000312955 -0.000312955 7.63841e-06 3.12955 198.973 348.368 
965 0.899 0.899 0 0.000660437 0.000660437 -7.99508e-05 39.4694 4965.07 6739.73 
1045 0.8694 0.8694 0 0.000639428 0.000639428 -2.42265e-05 38.0083 4818.04 6544.6 
1125 0.754 0.754 0 0.000734795 0.000734795 8.48022e-06 33.4305 5264.91 7100.74 
6 7.303 7.303 0 0.0319442 0.0319442 1.21707e-05 319.442 34765.9 47171.4 
86 10.464 10.464 0 0.0433625 0.0433625 -2.64519e-05 433.625 25930.1 36655.4 
166 10.7106 10.7106 0 0.0440742 0.0440742 -2.11689e-05 440.742 25123.4 35261.9 
246 9.9478 9.9478 0 0.0415855 0.0415855 -3.43624e-05 415.855 27960.4 38253.3 
326 0.5836 0.5836 0 0.000853136 0.000853136 1.98729e-05 25.4953 4626.38 6155.72 
406 0.8004 0.8004 0 0.000759147 0.000759147 4.84499e-06 35.4438 5429.81 7100.93 
486 0.9062 0.9062 0 0.000623509 0.000623509 2.43646e-06 39.9207 5217.26 7144.06 
566 0.8512 0.8512 0 0.00065916 0.00065916 2.44048e-05 37.4547 4169.08 5814.19 
646 0.1312 0.1312 0 -0.000547477 -0.000547477 -2.28901e-05 5.47477 397.223 567.578 
726 0.2072 0.2072 0 -0.00088125 -0.00088125 1.50935e-05 8.8125 629.974 978.993 
806 0.189 0.189 0 -0.000798891 -0.000798891 2.10756e-05 7.98891 712.714 1035.47 
886 0.0742 0.0742 0 -0.000288834 -0.000288834 -3.6482e-06 2.88834 197.513 329.653 
966 0.9188 0.9188 0 0.000658744 0.000658744 -2.12946e-05 40.2971 4841.09 6779.54 
1046 0.874 0.874 0 0.000655214 0.000655214 4.73088e-06 38.493 4956.71 6886.84 
1126 0.747 0.747 0 0.000745236 0.000745236 5.76946e-06 33.3577 5408.97 7051.99 
7 7.5668 7.5668 0 0.0328562 0.0328562 2.98882e-05 328.562 33916.4 46588.2 
87 10.4898 10.4898 0 0.0433978 0.0433978 -6.25306e-05 433.978 25754.2 35973 
167 10.6346 10.6346 0 0.0439479 0.0439479 2.84304e-05 439.479 25372.8 35243.6 
247 9.9266 9.9266 0 0.041525 0.041525 0.000227712 415.25 28398.6 38718.6 
327 0.6154 0.6154 0 0.000859398 0.000859398 1.34113e-05 26.7433 4750.87 6127.25 
407 0.8018 0.8018 0 0.000684408 0.000684408 -4.65495e-05 35.6026 5113.32 6907.24 
487 0.8994 0.8994 0 0.000682771 0.000682771 2.77728e-05 39.723 5162.32 7118.35 
567 0.8536 0.8536 0 0.000639398 0.000639398 -1.89662e-05 37.0749 4698.86 6401.87 
647 0.1246 0.1246 0 -0.000522701 -0.000522701 4.88908e-06 5.22701 420.819 669.151 
727 0.2088 0.2088 0 -0.000915764 -0.000915764 1.41821e-05 9.15764 769.271 1072.17 
807 0.1852 0.1852 0 -0.000778376 -0.000778376 -7.97849e-06 7.78376 677.999 935.723 
887 0.0774 0.0774 0 -0.000291739 -0.000291739 7.87898e-06 2.91739 222.629 350.755 
967 0.905 0.905 0 0.000626166 0.000626166 -5.258e-05 39.5532 4701.88 6357.23 
1047 0.9002 0.9002 0 0.000703235 0.000703235 1.86617e-05 39.7538 5067.87 6930.29 
1127 0.7706 0.7706 0 0.00076058 0.00076058 -6.00478e-05 34.562 5166.82 7047.33 
8 7.674 7.674 0 0.0331901 0.0331901 3.45421e-05 331.901 33487.1 45990.5 
88 10.433 10.433 0 0.043249 0.043249 0.000104508 432.49 26448.7 36718.1 
168 10.6682 10.6682 0 0.0440569 0.0440569 5.17958e-06 440.569 24910.2 34786.1 
248 10.0316 10.0316 0 0.0419097 0.0419097 5.65958e-05 419.097 27894.4 39064.3 
328 0.6076 0.6076 0 0.000807341 0.000807341 5.12196e-05 26.6781 4691.95 6090.45 
408 0.8138 0.8138 0 0.000753179 0.000753179 3.99143e-05 36.4305 5280.62 7309.35 
488 0.8746 0.8746 0 0.000647038 0.000647038 3.14924e-05 38.8644 4951.45 6839.66 
568 0.8696 0.8696 0 0.000669273 0.000669273 -1.5351e-05 38.1693 4574.75 6226.29 
648 0.1364 0.1364 0 -0.000558991 -0.000558991 -1.73136e-05 5.58991 358.18 581.012 
728 0.2092 0.2092 0 -0.000913427 -0.000913427 1.05622e-05 9.13427 660.584 941.798 
808 0.1882 0.1882 0 -0.000786853 -0.000786853 5.88176e-06 7.86853 669.967 1034.17 
888 0.0782 0.0782 0 -0.000294009 -0.000294009 1.92385e-06 2.94009 214.415 329.786 
968 0.9014 0.9014 0 0.000640911 0.000640911 4.47402e-05 39.3805 4595.3 6518.46 
1048 0.8876 0.8876 0 0.000659697 0.000659697 -4.4129e-05 38.8936 4751.17 6556.19 
1128 0.7612 0.7612 0 0.00073546 0.00073546 5.81658e-06 33.7953 5328.41 7083.45 
9 7.8136 7.8136 0 0.0338787 0.0338787 0.000145056 338.787 33356.7 45793.4 
89 10.4152 10.4152 0 0.0432154 0.0432154 -5.09298e-05 432.154 26232.2 36153.7 
169 10.6526 10.6526 0 0.0439582 0.0439582 -4.26659e-05 439.582 24970.8 35134.7 
249 10.0064 10.0064 0 0.0417239 0.0417239 -6.24872e-05 417.239 28324.7 39277.4 
329 0.6268 0.6268 0 0.000848431 0.000848431 -6.38831e-05 27.3483 4622.47 6257.58 
409 0.8056 0.8056 0 0.000728451 0.000728451 9.48459e-06 36.0324 5075.65 6968.08 
489 0.9 0.9 0 0.000599201 0.000599201 -8.34585e-06 39.3503 4559.73 6497.45 
569 0.8476 0.8476 0 0.000637584 0.000637584 -3.63622e-05 37.2997 4487.77 6096.84 
649 0.1486 0.1486 0 -0.000601525 -0.000601525 -2.67035e-06 6.01525 443.166 663.334 
729 0.219 0.219 0 -0.000944101 -0.000944101 -2.02466e-05 9.44101 757.764 1098.48 
809 0.183 0.183 0 -0.000764771 -0.000764771 2.11252e-05 7.64771 530.754 787.079 
889 0.0726 0.0726 0 -0.000267069 -0.000267069 1.03728e-05 2.67069 214.536 369.743 
969 0.9158 0.9158 0 0.000669404 0.000669404 2.27408e-05 40.205 4838.36 6600.76 
1049 0.894 0.894 0 0.000659813 0.000659813 2.49534e-05 39.5703 5117.72 6806.84 
1129 0.7778 0.7778 0 0.000731063 0.000731063 3.50983e-05 35.0207 5308.52 7218.48 
10 7.9834 7.9834 0 0.0344427 0.0344427 5.07853e-05 344.427 33282.9 45733.7 
90 10.4022 10.4022 0 0.0431578 0.0431578 -1.66256e-05 431.578 26107.7 36226.1 
170 10.7314 10.7314 0 0.0442504 0.0442504 -0.000193532 442.504 26022.8 35928.9 
250 9.9902 9.9902 0 0.041626 0.041626 -6.88025e-05 416.26 28399.3 39480.6 
330 0.6164 0.6164 0 0.000839941 0.000839941 -7.17467e-06 27.0849 4690.26 6209.13 
410 0.8362 0.8362 0 0.000746624 0.000746624 -1.92901e-05 37.1861 5307.52 7033.77 
490 0.8984 0.8984 0 0.000682281 0.000682281 -2.44608e-05 39.3143 5220.05 6872.86 
570 0.85 0.85 0 0.000665631 0.000665631 -4.08575e-06 37.0415 4649.18 6369.44 
650 0.143 0.143 0 -0.000600093 -0.000600093 5.41816e-06 6.00093 511.258 794.581 
730 0.2182 0.2182 0 -0.000923873 -0.000923873 -3.27328e-05 9.23873 781.702 1104.4 
810 0.1884 0.1884 0 -0.000810376 -0.000810376 2.58675e-05 8.10376 646.148 968.702 
890 0.07 0.07 0 -0.000254947 -0.000254947 2.84834e-06 2.54947 213.871 411.004 
970 0.9176 0.9176 0 0.000643686 0.000643686 1.44433e-06 39.0643 4399.11 6138.71 
1050 0.8656 0.8656 0 0.000752491 0.000752491 1.18237e-07 38.2547 4962.1 6729.15 
1130 0.7558 0.7558 0 0.000734102 0.000734102 -3.54339e-05 34.1688 5002.55 6821.22 
11 8.0288 8.0288 0 0.0345688 0.0345688 -9.84522e-05 345.688 32746.7 44796.3 
91 10.4928 10.4928 0 0.0434843 0.0434843 3.5559e-05 434.843 26163.5 36208.9 
171 10.7248 10.7248 0 0.0442458 0.0442458 0.000253627 442.458 25852 35456.1 
251 9.939 9.939 0 0.0416427 0.0416427 -1.49397e-05 416.427 28723.8 39517 
331 0.6058 0.6058 0 0.000834187 0.000834187 -3.74459e-05 26.6522 4762.82 6233.77 
411 0.7984 0.7984 0 0.000725008 0.000725008 1.26968e-05 35.2225 5154.6 7021.01 
491 0.8772 0.8772 0 0.000659669 0.000659669 -6.16332e-07 39.0568 4775.92 6569.64 
571 0.8478 0.8478 0 0.000709402 0.000709402 1.28571e-05 37.3966 4567.42 6362.34 
651 0.1356 0.1356 0 -0.000555239 -0.000555239 -9.02344e-06 5.55239 415.435 562.414 
731 0.2134 0.2134 0 -0.000903767 -0.000903767 7.36533e-06 9.03767 681.232 1108.58 
811 0.1934 0.1934 0 -0.000829772 -0.000829772 8.16632e-06 8.29772 520.921 822.364 
891 0.068 0.068 0 -0.00024938 -0.00024938 -1.11438e-05 2.4938 191.812 350.07 
971 0.919 0.919 0 0.000670813 0.000670813 -4.54873e-06 40.2389 4785.4 6674.38 
1051 0.8658 0.8658 0 0.000670967 0.000670967 -1.32755e-05 38.3614 4859.52 6787.52 
1131 0.7582 0.7582 0 0.000762081 0.000762081 2.25454e-05 33.9226 5399.78 7183.34 
12 8.1278 8.1278 0 0.0349064 0.0349064 -6.07678e-05 349.064 31398.6 43489.5 
92 10.2954 10.2954 0 0.042712 0.042712 -4.38335e-05 427.12 25287.1 35345.8 
172 10.6486 10.6486 0 0.0438791 0.0438791 -4.65747e-05 438.791 24901 34425.4 
252 9.876 9.876 0 0.0413169 0.0413169 3.10899e-05 413.169 28401.8 39529.8 
332 0.6204 0.6204 0 0.000824885 0.000824885 -2.0913e-05 27.0379 4755.99 6321.71 
412 0.839 0.839 0 0.000762737 0.000762737 -6.32284e-06 37.516 5503.57 7359.61 
492 0.9038 0.9038 0 0.000599708 0.000599708 7.82676e-06 39.6151 4745.51 6487.3 
572 0.8114 0.8114 0 0.000625733 0.000625733 6.53389e-05 34.9498 4271.12 5829.49 
652 0.1432 0.1432 0 -0.000598496 -0.000598496 5.96728e-06 5.98496 502.895 725.86 
732 0.2144 0.2144 0 -0.000909095 -0.000909095 -1.4132e-05 9.09095 673.019 1002.5 
812 0.1768 0.1768 0 -0.000755473 -0.000755473 -4.28492e-05 7.55473 617.032 945.485 
892 0.068 0.068 0 -0.000245242 -0.000245242 1.76732e-06 2.45242 109.062 214.095 
972 0.9024 0.9024 0 0.000628727 0.000628727 1.87353e-05 39.429 4654.7 6378.56 
1052 0.9048 0.9048 0 0.000752903 0.000752903 -7.78332e-06 39.5643 4978.62 6903.68 
1132 0.7508 0.7508 0 0.000776883 0.000776883 3.19333e-05 33.433 5116.36 6780.89 
13 8.3276 8.3276 0 0.0357179 0.0357179 0.000137628 357.179 32037.3 44820.4 
93 10.5326 10.5326 0 0.0435811 0.0435811 -2.46551e-05 435.811 26435.3 36693.5 
173 10.7128 10.7128 0 0.0440576 0.0440576 -0.000126725 440.576 25701.7 35685 
253 9.9428 9.9428 0 0.0415452 0.0415452 -9.12462e-05 415.452 29564.7 40155.5 
333 0.6116 0.6116 0 0.000773056 0.000773056 -1.39945e-05 26.4346 4376.66 5955.95 
413 0.8004 0.8004 0 0.000633594 0.000633594 4.36151e-06 35.3654 5076.92 6929.14 
493 0.9044 0.9044 0 0.000621542 0.000621542 -1.76474e-05 39.7457 4758.97 6440.31 
573 0.8408 0.8408 0 0.000729145 0.000729145 3.05439e-05 37.1423 4557.12 6187.01 
653 0.1462 0.1462 0 -0.000601434 -0.000601434 2.27714e-05 6.01434 422.942 686.224 
733 0.2246 0.2246 0 -0.000967014 -0.000967014 1.57662e-05 9.67014 839.068 1224.3 
813 0.1908 0.1908 0 -0.000815299 -0.000815299 6.67656e-06 8.15299 571.23 735.217 
893 0.0658 0.0658 0 -0.000235589 -0.000235589 -4.46845e-06 2.35589 110.152 274.599 
973 0.9016 0.9016 0 0.000635498 0.000635498 -4.36453e-06 40.2272 4785.97 6693.19 
1053 0.8864 0.8864 0 0.00067497 0.00067497 1.63111e-05 38.9012 4927.99 6642.29 
1133 0.7352 0.7352 0 0.000796386 0.000796386 5.54516e-05 32.9442 5314.88 6985.15 
14 8.3882 8.3882 0 0.0359024 0.0359024 0.000143262 359.024 31745.2 43822.5 
94 10.5538 10.5538 0 0.0437257 0.0437257 0.000123538 437.257 26202.8 36343.9 
174 10.6834 10.6834 0 0.0440451 0.0440451 -4.59657e-06 440.451 25852.2 35860.2 
254 9.8672 9.8672 0 0.041438 0.041438 6.0257e-05 414.38 28203.6 39109.8 
334 0.6188 0.6188 0 0.000807761 0.000807761 1.64502e-05 27.136 4668.12 6228.98 
414 0.8318 0.8318 0 0.00072306 0.00072306 -3.15921e-06 37.0056 5150.91 6950.4 
494 0.9152 0.9152 0 0.000638413 0.000638413 -2.3291e-05 39.5374 4678.39 6369.39 
574 0.8282 0.8282 0 0.000683831 0.000683831 -5.18235e-06 36.2261 4516.57 6291.87 
654 0.148 0.148 0 -0.000603929 -0.000603929 -2.78695e-05 6.03929 501.328 761.764 
734 0.2204 0.2204 0 -0.000972311 -0.000972311 -4.61191e-06 9.72311 758.302 1048.06 
814 0.1776 0.1776 0 -0.000743109 -0.000743109 1.08446e-05 7.43109 535.65 859.475 
894 0.0606 0.0606 0 -0.000219231 -0.000219231 5.53353e-06 2.19231 130.882 223.986 
974 0.8916 0.8916 0 0.000655146 0.000655146 -1.89849e-05 38.963 4750.96 6625.21 
1054 0.869 0.869 0 0.000660643 0.000660643 -5.00803e-06 37.9885 4911.36 6707.69 
1134 0.7382 0.7382 0 0.000802079 0.000802079 -2.74623e-05 32.9738 5220.87 7002.62 
15 8.416 8.416 0 0.0360617 0.0360617 -2.5533e-05 360.617 31583.5 43661.6 
95 10.4678 10.4678 0 0.0433122 0.0433122 8.93415e-05 433.122 25351.1 35427.8 
175 10.7138 10.7138 0 0.0441818 0.0441818 6.13593e-06 441.818 24886.3 34749.8 
255 9.7902 9.7902 0 0.0409486 0.0409486 7.61363e-05 409.486 29292.1 40473.4 
335 0.6512 0.6512 0 0.000867556 0.000867556 -3.03877e-05 28.7927 5033.02 6627.51 
415 0.8398 0.8398 0 0.00069649 0.00069649 5.22706e-05 37.5904 5154.1 6986.06 
495 0.8858 0.8858 0 0.00063745 0.00063745 -1.67183e-05 39.0845 4901.26 6732.4 
575 0.8284 0.8284 0 0.000684041 0.000684041 3.0105e-05 36.1354 4462.7 6000.51 
655 0.1462 0.1462 0 -0.000611766 -0.000611766 -8.81605e-06 6.11766 567.992 843.266 
735 0.2082 0.2082 0 -0.00088761 -0.00088761 -1.40146e-05 8.8761 678.603 938.711 
815 0.1826 0.1826 0 -0.000798659 -0.000798659 1.49002e-05 7.98659 528.963 858.263 
895 0.0574 0.0574 0 -0.000208016 -0.000208016 -4.88532e-06 2.08016 145.672 295.041 
975 0.9148 0.9148 0 0.00064009 0.00064009 -3.30897e-05 39.5146 4501.02 6069.68 
1055 0.9014 0.9014 0 0.000635979 0.000635979 2.20608e-05 40.1431 5403.66 7338.04 
1135 0.747 0.747 0 0.000778775 0.000778775 2.48661e-05 33.5288 5327.16 7123.56 
16 8.5268 8.5268 0 0.0365533 0.0365533 -3.88175e-05 365.533 32068.3 43929.9 
96 10.4888 10.4888 0 0.0433542 0.0433542 -7.4158e-06 433.542 25489.3 35321.5 
176 10.6604 10.6604 0 0.0439094 0.0439094 5.42479e-05 439.094 24981.6 35062.1 
256 9.8152 9.8152 0 0.0410202 0.0410202 -1.38366e-05 410.202 28750.3 39634.4 
336 0.653 0.653 0 0.000823538 0.000823538 -1.34823e-05 28.8935 4959.23 6731.85 
416 0.8208 0.8208 0 0.000746734 0.000746734 -8.06063e-05 36.6266 5114.55 7076.91 
496 0.8884 0.8884 0 0.00058664 0.00058664 -4.3089e-06 38.8594 4938.43 6643.44 
576 0.8288 0.8288 0 0.000677625 0.000677625 -1.01908e-05 36.2526 4758.74 6166.99 
656 0.153 0.153 0 -0.00065325 -0.00065325 1.00098e-05 6.5325 479.25 751.626 
736 0.21 0.21 0 -0.000909672 -0.000909672 -1.20953e-05 9.09672 615.717 884.201 
816 0.188 0.188 0 -0.000788981 -0.000788981 1.94616e-06 7.88981 609.392 941.892 
896 0.0574 0.0574 0 -0.000202517 -0.000202517 1.45455e-06 2.02517 166.641 298.055 
976 0.9168 0.9168 0 0.00062638 0.00062638 -5.2099e-05 39.7475 4944.81 6691 
1056 0.8666 0.8666 0 0.000658271 0.000658271 -1.06685e-05 38.533 4713.08 6681.88 
1136 0.7382 0.7382 0 0.000765194 0.000765194 5.84586e-05 33.2686 5111.7 6897.32 
17 8.62 8.62 0 0.0367735 0.0367735 0.000138367 367.735 31965.7 43996.8 
97 10.5582 10.5582 0 0.0436723 0.0436723 -4.87143e-05 436.723 26164.7 36222.6 
177 10.695 10.695 0 0.0440582 0.0440582 1.61574e-05 440.582 25644.8 35759.8 
257 9.8816 9.8816 0 0.041409 0.041409 0.00013081 414.09 29125.9 40416.6 
337 0.6634 0.6634 0 0.000814178 0.000814178 -4.52595e-05 29.5768 4831.38 6497.62 
417 0.8144 0.8144 0 0.0007548 0.0007548 -1.777e-05 36.444 4971.85 6799.2 
497 0.882 0.882 0 0.000602759 0.000602759 -5.90876e-05 39.1963 4799.73 6499.43 
577 0.8236 0.8236 0 0.000760789 0.000760789 -1.95843e-05 36.1793 4554.86 6116.73 
657 0.1484 0.1484 0 -0.000624202 -0.000624202 -1.59259e-06 6.24202 518.901 739.404 
737 0.2166 0.2166 0 -0.000931755 -0.000931755 9.32288e-06 9.31755 826.937 1108.25 
817 0.1816 0.1816 0 -0.000770276 -0.000770276 7.6648e-06 7.70276 538.287 825.118 
897 0.0594 0.0594 0 -0.000226904 -0.000226904 -4.06338e-06 2.26904 175.701 311.176 
977 0.9044 0.9044 0 0.000681803 0.000681803 -4.89628e-05 39.786 4999.51 6727.98 
1057 0.8626 0.8626 0 0.00066765 0.00066765 -2.06778e-05 37.9841 5070.27 6983.98 
1137 0.7332 0.7332 0 0.000791581 0.000791581 3.62097e-05 32.9269 5200.64 6917.57 
18 8.7658 8.7658 0 0.0374063 0.0374063 -0.000111611 374.063 31623.1 43098.9 
98 10.5454 10.5454 0 0.043629 0.043629 -2.29301e-05 436.29 24853.4 35283.3 
178 10.6676 10.6676 0 0.0440474 0.0440474 -0.000170512 440.474 25036 34808.3 
258 9.6952 9.6952 0 0.0406349 0.0406349 -4.00804e-05 406.349 28155.5 39062.4 
338 0.6822 0.6822 0 0.000838101 0.000838101 1.89472e-05 29.9344 5064.65 6826.88 
418 0.8082 0.8082 0 0.000658667 0.000658667 -3.20604e-05 35.6981 4783.66 6551.47 
498 0.891 0.891 0 0.000605583 0.000605583 3.18333e-05 39.5917 5072.75 6980.61 
578 0.7964 0.7964 0 0.000691049 0.000691049 -1.46317e-06 34.9691 4437.04 6040.14 
658 0.1572 0.1572 0 -0.000639681 -0.000639681 1.44385e-05 6.39681 468.823 694.356 
738 0.226 0.226 0 -0.00094153 -0.00094153 -2.65662e-05 9.4153 657.271 1008.44 
818 0.1714 0.1714 0 -0.000728026 -0.000728026 3.43265e-06 7.28026 572.586 796.589 
898 0.05 0.05 0 -0.000169642 -0.000169642 1.1054e-05 1.69642 130.864 212.58 
978 0.911 0.911 0 0.000619967 0.000619967 3.46489e-05 39.9811 5064.02 6727.11 
1058 0.864 0.864 0 0.000677552 0.000677552 -9.29929e-07 38.06 4981.15 6728.18 
1138 0.7182 0.7182 0 0.000834068 0.000834068 2.44476e-06 31.9571 5120.46 6697.68 
19 8.7256 8.7256 0 0.0371108 0.0371108 -2.14525e-05 371.108 30337.8 42238.7 
99 10.5302 10.5302 0 0.0434426 0.0434426 -7.94e-05 434.426 25792.7 35362.4 
179 10.6324 10.6324 0 0.0439494 0.0439494 -9.84974e-05 439.494 25896.4 36088.3 
259 9.7484 9.7484 0 0.0407906 0.0407906 7.83339e-05 407.906 29301.1 40317.3 
339 0.6642 0.6642 0 0.0008362 0.0008362 -1.65572e-05 29.194 5244.54 6988.62 
419 0.8442 0.8442 0 0.000681056 0.000681056 -5.41971e-06 37.5261 5155.51 7046.06 
499 0.9064 0.9064 0 0.000636399 0.000636399 1.83627e-05 39.8892 5085.3 6838.47 
579 0.8128 0.8128 0 0.000679462 0.000679462 6.13359e-05 35.3229 4267.13 5821.12 
659 0.1658 0.1658 0 -0.000703397 -0.000703397 -8.68524e-07 7.03397 462.056 671.7 
739 0.1992 0.1992 0 -0.000874736 -0.000874736 -2.29075e-05 8.74736 664.947 999.621 
819 0.1782 0.1782 0 -0.000754124 -0.000754124 -3.09815e-06 7.54124 628.559 946.776 
899 0.0472 0.0472 0 -0.000170116 -0.000170116 7.82834e-06 1.70116 116.608 211.075 
979 0.8832 0.8832 0 0.000565552 0.000565552 2.30902e-05 38.9508 4674.14 6569.19 
1059 0.8992 0.8992 0 0.000722534 0.000722534 -5.95912e-06 39.4908 5289.29 7180.11 
1139 0.7262 0.7262 0 0.000761892 0.000761892 -5.99854e-06 32.6241 5231.01 6989.33 
20 8.8148 8.8148 0 0.0374482 0.0374482 -3.30072e-05 374.482 30848.6 42384.5 
100 10.564 10.564 0 0.0435512 0.0435512 5.85927e-06 435.512 25949.6 35928.9 
180 10.6676 10.6676 0 0.0441271 0.0441271 -3.11451e-05 441.271 26100.5 36153.9 
260 9.7434 9.7434 0 0.0408329 0.0408329 -9.99899e-05 408.329 28993.8 40070.3 
340 0.6584 0.6584 0 0.00083509 0.00083509 1.76923e-05 29.0563 4922.49 6593.91 
420 0.8262 0.8262 0 0.000706194 0.000706194 3.8667e-06 36.4633 5410.32 7227.1 
500 0.9004 0.9004 0 0.000621022 0.000621022 4.67485e-05 39.719 4967.49 6671.84 
580 0.787 0.787 0 0.000707262 0.000707262 2.49396e-06 35.108 4525.97 6162.34 
660 0.1542 0.1542 0 -0.000655647 -0.000655647 7.06589e-06 6.55647 511.886 761.572 
740 0.2186 0.2186 0 -0.000916454 -0.000916454 9.13845e-06 9.16454 876.348 1234.86 
820 0.1832 0.1832 0 -0.000784041 -0.000784041 7.83525e-06 7.84041 622.426 889.522 
900 0.0476 0.0476 0 -0.000167125 -0.000167125 -3.38379e-06 1.67125 99.0978 206.435 
980 0.9178 0.9178 0 0.000653791 0.000653791 4.51086e-06 39.8326 4610.06 6390.02 
1060 0.8474 0.8474 0 0.000679044 0.000679044 1.49935e-05 37.2898 4985.51 6661.88 
1140 0.7372 0.7372 0 0.000798945 0.000798945 -1.18042e-05 32.7368 5085.68 6738.94 
21 8.8676 8.8676 0 0.0376981 0.0376981 -6.39316e-05 376.981 31166.4 43224.6 
101 10.6528 10.6528 0 0.0439446 0.0439446 -4.64764e-06 439.446 25368.6 35536.4 
181 10.5312 10.5312 0 0.0435689 0.0435689 4.73551e-06 435.689 26248.7 35938.1 
261 9.6966 9.6966 0 0.0406193 0.0406193 -3.02895e-05 406.193 28331.4 39356.9 
341 0.6666 0.6666 0 0.00080743 0.00080743 1.21201e-05 29.9182 4974.33 6623.47 
421 0.8444 0.8444 0 0.000709728 0.000709728 3.3227e-05 36.9073 5151.15 7086.17 
501 0.901 0.901 0 0.000667003 0.000667003 4.79253e-05 39.579 4710.03 6688 
581 0.8034 0.8034 0 0.000731424 0.000731424 -2.59989e-05 35.4247 4600.09 6059.01 
661 0.1562 0.1562 0 -0.000663712 -0.000663712 6.55291e-07 6.63712 549.421 819.127 
741 0.2014 0.2014 0 -0.000865399 -0.000865399 -7.24195e-06 8.65399 618.626 889.588 
821 0.1746 0.1746 0 -0.000738535 -0.000738535 -5.09866e-06 7.38535 676.201 1001.63 
901 0.5866 0.5866 0 0.000965223 0.000965223 2.44651e-05 26.7123 4592.71 5881.1 
981 0.9064 0.9064 0 0.000617183 0.000617183 -5.11869e-05 39.9989 4692.31 6487.6 
1061 0.8636 0.8636 0 0.000658587 0.000658587 2.24094e-05 38.382 4956.27 6790.25 
1141 0.7222 0.7222 0 0.000790597 0.000790597 1.67088e-05 32.1015 5282.1 6958.16 
22 8.8936 8.8936 0 0.0378076 0.0378076 2.93276e-05 378.076 30795.5 42414.8 
102 10.5584 10.5584 0 0.043499 0.043499 -5.60649e-05 434.99 25157.9 35039.3 
182 10.7184 10.7184 0 0.044445 0.044445 2.51237e-05 444.45 26645.1 37168.2 
262 9.7444 9.7444 0 0.0408361 0.0408361 2.23041e-05 408.361 30098.4 41231.1 
342 0.663 0.663 0 0.000808222 0.000808222 -2.61044e-05 29.0915 4703.31 6395.46 
422 0.8062 0.8062 0 0.000705377 0.000705377 -5.75792e-05 35.6323 5136.86 6950.43 
502 0.9078 0.9078 0 0.000716479 0.000716479 -6.04617e-06 39.5944 4925.55 6887.12 
582 0.7984 0.7984 0 0.000746423 0.000746423 2.93607e-05 34.7716 4340.36 5984.52 
662 0.161 0.161 0 -0.000681868 -0.000681868 5.84555e-06 6.81868 478.776 744.172 
742 0.2132 0.2132 0 -0.00092175 -0.00092175 8.93955e-06 9.2175 755.226 1057.15 
822 0.1784 0.1784 0 -0.000738573 -0.000738573 -1.83828e-06 7.38573 553.967 844.799 
902 0.5902 0.5902 0 0.000897511 0.000897511 -7.37251e-06 26.7518 4548.99 5849.17 
982 0.911 0.911 0 0.000611422 0.000611422 3.23952e-05 39.7771 4923.62 6612.73 
1062 0.8652 0.8652 0 0.000689673 0.000689673 -5.38726e-05 37.9829 5080.79 6852.9 
1142 0.7222 0.7222 0 0.000804358 0.000804358 -2.39934e-05 31.8703 5280.1 6883.37 
23 8.9696 8.9696 0 0.0381277 0.0381277 8.01765e-05 381.277 30920 42080.8 
103 10.5892 10.5892 0 0.0438058 0.0438058 0.000113516 438.058 25870.4 35995.4 
183 10.606 10.606 0 0.0437587 0.0437587 7.40606e-05 437.587 25574.6 35409.2 
263 9.6252 9.6252 0 0.0404604 0.0404604 -7.88959e-05 404.604 28495.3 39408.1 
343 0.6504 0.6504 0 0.000825256 0.000825256 -7.76724e-06 28.9838 4993.36 6707.09 
423 0.8334 0.8334 0 0.000707038 0.000707038 2.33081e-05 37.1068 5114.06 7154.02 
503 0.8994 0.8994 0 0.000654496 0.000654496 -3.01298e-07 39.3513 4598.36 6489.32 
583 0.8026 0.8026 0 0.000802774 0.000802774 -3.97647e-05 35.2369 4638.91 6045.79 
663 0.1554 0.1554 0 -0.000649991 -0.000649991 -1.22118e-05 6.49991 559.371 891.839 
743 0.2144 0.2144 0 -0.000918826 -0.000918826 1.68038e-06 9.18826 823.004 1228.75 
823 0.1674 0.1674 0 -0.000707572 -0.000707572 8.37081e-07 7.07572 593.847 881.267 
903 0.6288 0.6288 0 0.000918109 0.000918109 1.41911e-05 28.1962 4446.39 5865.2 
983 0.9152 0.9152 0 0.00062575 0.00062575 -2.26483e-05 40.3247 4892.46 6627.04 
1063 0.8606 0.8606 0 0.000651185 0.000651185 -2.07153e-05 38.2774 5183.62 7015.33 
1143 0.731 0.731 0 0.000791749 0.000791749 -2.80208e-06 32.5637 5016.37 6690.59 
24 9.051 9.051 0 0.0382806 0.0382806 -1.97773e-05 382.806 30736.5 41984.6 
104 10.6192 10.6192 0 0.0438126 0.0438126 0.000165356 438.126 25859.3 36232.8 
184 10.6032 10.6032 0 0.0438119 0.0438119 9.27411e-05 438.119 26057.3 35924.6 
264 9.4928 9.4928 0 0.0399478 0.0399478 -2.60857e-05 399.478 29242.3 40616.3 
344 0.6628 0.6628 0 0.00083116 0.00083116 -2.1474e-06 29.3452 5189.47 7021.82 
424 0.8496 0.8496 0 0.00067408 0.00067408 -3.67582e-06 37.802 5074.69 6790.92 
504 0.9238 0.9238 0 0.000650761 0.000650761 -1.79734e-05 40.7027 5010.28 6717.54 
584 0.778 0.778 0 0.000726566 0.000726566 2.12226e-05 34.0691 4587.02 6041.64 
664 0.1574 0.1574 0 -0.00065879 -0.00065879 1.31497e-05 6.5879 554.827 725.307 
744 0.2238 0.2238 0 -0.000960451 -0.000960451 2.73732e-05 9.60451 748.386 1089.1 
824 0.1844 0.1844 0 -0.000771531 -0.000771531 -2.09512e-05 7.71531 536.569 750.64 
904 0.6442 0.6442 0 0.000886253 0.000886253 -5.66704e-06 28.9723 4675.85 5947.01 
984 0.9024 0.9024 0 0.000660113 0.000660113 1.47271e-05 39.502 5017.5 6635.58 
1064 0.886 0.886 0 0.000678689 0.000678689 -5.87115e-05 39.0449 5253.25 7189.86 
1144 0.7074 0.7074 0 0.00078302 0.00078302 6.91173e-06 31.5773 5081.85 6786.52 
25 9.047 9.047 0 0.0383606 0.0383606 -1.44305e-06 383.606 30826 42701.9 
105 10.4676 10.4676 0 0.0432636 0.0432636 -6.13971e-05 432.636 25820.8 35335.8 
185 10.7316 10.7316 0 0.0443319 0.0443319 -8.46893e-05 443.319 26439 36604.3 
265 9.6112 9.6112 0 0.0403614 0.0403614 -5.23427e-05 403.614 30357.1 41943.7 
345 0.6762 0.6762 0 0.000801916 0.000801916 -1.35891e-05 29.7923 5266.34 6749.32 
425 0.8688 0.8688 0 0.000726026 0.000726026 8.34928e-06 38.2512 5070.18 6988.26 
505 0.8856 0.8856 0 0.000625198 0.000625198 1.31152e-05 39.0118 4659.86 6446.91 
585 0.7618 0.7618 0 0.000690484 0.000690484 -1.09399e-05 33.3025 4309.69 5771.46 
665 0.1594 0.1594 0 -0.000667719 -0.000667719 -7.72646e-06 6.67719 557.044 833.973 
745 0.2056 0.2056 0 -0.000870038 -0.000870038 -3.67175e-06 8.70038 632.124 975.976 
825 0.169 0.169 0 -0.000711593 -0.000711593 5.82792e-07 7.11593 485.486 760.257 
905 0.6436 0.6436 0 0.000808487 0.000808487 3.41678e-05 28.4837 4145.02 5604.9 