ITEM: TIMESTEP
25000
ITEM: NUMBER OF SURFS
1200
ITEM: BOX BOUNDS oo rr pp
0 0.3
0 0.3
-0.5 0.5
ITEM: SURFS id f_4[1] f_4[2] f_4[3] f_4[4] f_4[5] f_4[6] f_4[7] f_4[8] f_4[9] 
1 6.55 6.55 0 0.275357 0.275357 0.000116507 2753.57 257241 343451 
41 9.9658 9.9658 0 0.404738 0.404738 0.000416887 4047.38 198416 290587 
81 10.637 10.637 0 0.430594 0.430594 0.00152101 4305.94 185279 271862 
121 10.9344 10.9344 0 0.440304 0.440304 0.000454613 4403.04 178407 263850 
161 11.1142 11.1142 0 0.448348 0.448348 0.000272011 4483.48 185937 273029 
201 10.7766 10.7766 0 0.434637 0.434637 0.00170272 4346.37 184325 270449 
241 10.3604 10.3604 0 0.419978 0.419978 -0.000957458 4199.78 192122 282623 
281 9.0956 9.0956 0 0.374442 0.374442 -0.000731089 3744.42 211804 305545 
321 0.4006 0.4006 0 0.00344353 0.00344353 -0.000145811 160.771 10127.3 14172.5 
361 0.5342 0.5342 0 0.00221107 0.00221107 -7.39213e-05 213.625 9064.42 11761.1 
401 0.7028 0.7028 0 0.00187778 0.00187778 5.21136e-06 279.725 11099 15467.4 
441 0.7516 0.7516 0 0.0021922 0.0021922 0.000133146 298.792 8896.15 13343.3 
481 0.8474 0.8474 0 0.00200256 0.00200256 -0.000448461 340.79 10940.3 14614 
521 0.8928 0.8928 0 0.00185739 0.00185739 0.000364565 353.777 12500.2 16056.7 
561 0.8772 0.8772 0 0.0025503 0.0025503 0.000404884 347.145 10639.3 15202.9 
601 0.0618 0.0618 0 -0.00225991 -0.00225991 -0.000129123 22.5991 -194.077 206.003 
641 0.2328 0.2328 0 -0.00900472 -0.00900472 9.9977e-05 90.0472 1824.93 1792.23 
681 0.2208 0.2208 0 -0.00876103 -0.00876103 -0.000197665 87.6103 2401.4 3322.96 
721 0.236 0.236 0 -0.00934266 -0.00934266 -0.000184956 93.4266 4198.63 5277.26 
761 0.2524 0.2524 0 -0.0101338 -0.0101338 -7.20783e-05 101.338 2045.53 4239.7 
801 0.2438 0.2438 0 -0.00948683 -0.00948683 0.000108352 94.8683 2439.82 3878.18 
841 0.2302 0.2302 0 -0.00898372 -0.00898372 -6.44569e-05 89.8372 1906.75 3021.48 
881 0.2274 0.2274 0 -0.00884068 -0.00884068 0.000116731 88.4068 471.785 886.132 
921 0.8236 0.8236 0 0.00255265 0.00255265 0.000292358 326.65 11379.2 15751.9 
961 0.8778 0.8778 0 0.00182956 0.00182956 -0.000208021 348.354 10618.6 15574.8 
1001 0.8418 0.8418 0 0.00205571 0.00205571 0.000185174 334.082 10652.5 14032.8 
1041 0.8344 0.8344 0 0.00214468 0.00214468 -0.000326373 333.283 10130.6 13139.2 
1081 0.7256 0.7256 0 0.00200541 0.00200541 0.00047396 293.313 10099.1 13202 
1121 0.6042 0.6042 0 0.00181624 0.00181624 9.58089e-06 242.064 9291.65 11098.4 
1161 0.4804 0.4804 0 0.00257003 0.00257003 -0.000194737 193.095 8549.44 11797.3 
2 6.7466 6.7466 0 0.283194 0.283194 -0.000331226 2831.94 251231 333146 
42 10.0056 10.0056 0 0.406706 0.406706 0.00168525 4067.06 195467 285197 
82 10.6648 10.6648 0 0.430801 0.430801 -0.000476979 4308.01 195235 277035 
122 10.8758 10.8758 0 0.438574 0.438574 -0.000206298 4385.74 182840 268864 
162 10.918 10.918 0 0.439078 0.439078 -0.000944434 4390.78 175677 257014 
202 10.8164 10.8164 0 0.435646 0.435646 0.00116912 4356.46 184225 268953 
242 10.297 10.297 0 0.416925 0.416925 -0.000167944 4169.25 196792 285695 
282 8.9952 8.9952 0 0.370235 0.370235 -0.000562125 3702.35 212167 308855 
322 0.403 0.403 0 0.00329205 0.00329205 4.10666e-05 160.588 8635.99 11868.1 
362 0.5366 0.5366 0 0.00199794 0.00199794 -0.00031318 213.965 8677.54 12019.9 
402 0.691 0.691 0 0.001632 0.001632 -0.000106782 277.638 9392.4 12185.1 
442 0.7658 0.7658 0 0.00158964 0.00158964 -0.00027959 305.436 8099.28 11069.7 
482 0.8624 0.8624 0 0.00231555 0.00231555 -0.000511926 340.581 10530.4 14410.3 
522 0.8854 0.8854 0 0.00230843 0.00230843 0.000298933 348.286 10868 14986.1 
562 0.882 0.882 0 0.00215669 0.00215669 -7.18983e-05 353.068 11195 15032.6 
602 0.0798 0.0798 0 -0.00292132 -0.00292132 -0.000150873 29.2132 327.296 561.439 
642 0.2188 0.2188 0 -0.00859471 -0.00859471 -0.000131551 85.9471 1300.17 1881.51 
682 0.2192 0.2192 0 -0.00865385 -0.00865385 0.000114008 86.5385 2484.99 3208.24 
722 0.2534 0.2534 0 -0.010181 -0.010181 -0.000165058 101.81 3422.87 5224.79 
762 0.2388 0.2388 0 -0.0097589 -0.0097589 -0.000151211 97.589 3998.88 5455.81 
802 0.235 0.235 0 -0.00925549 -0.00925549 0.00025409 92.5549 4212.81 4570.83 
842 0.225 0.225 0 -0.00880299 -0.00880299 -0.000101223 88.0299 2304.49 3049.92 
882 0.212 0.212 0 -0.00817199 -0.00817199 -5.95009e-05 81.7199 514.377 1325.54 
922 0.8284 0.8284 0 0.00261994 0.00261994 0.000275933 329.318 12975.4 17780.7 
962 0.892 0.892 0 0.00195869 0.00195869 3.22795e-05 355.424 11164.4 14393.9 
1002 0.8612 0.8612 0 0.00286414 0.00286414 -0.000103508 343.243 10294 14975.6 
1042 0.8132 0.8132 0 0.00182611 0.00182611 -0.000289828 320.672 10137.5 13540.1 
1082 0.7408 0.7408 0 0.00201878 0.00201878 0.000276552 295.731 9426.54 13680.7 
1122 0.6212 0.6212 0 0.00176084 0.00176084 -0.000132126 251.044 8947.63 12584.1 
1162 0.4656 0.4656 0 0.0024815 0.0024815 -2.73394e-06 186.966 9210.53 11346.8 
3 6.8704 6.8704 0 0.288034 0.288034 0.000591121 2880.34 234764 316739 
43 10.0488 10.0488 0 0.409009 0.409009 0.000217975 4090.09 204015 291928 
83 10.5724 10.5724 0 0.428632 0.428632 -0.00119231 4286.32 185938 269311 
123 10.8288 10.8288 0 0.437943 0.437943 -0.000164584 4379.43 182989 269635 
163 11.0462 11.0462 0 0.444465 0.444465 0.00106571 4444.65 187267 268167 
203 10.8586 10.8586 0 0.438883 0.438883 0.000429024 4388.83 191950 278141 
243 10.4122 10.4122 0 0.423094 0.423094 6.98304e-05 4230.94 197597 284446 
283 9.084 9.084 0 0.375528 0.375528 4.03372e-05 3755.28 221548 317232 
323 0.4054 0.4054 0 0.00298788 0.00298788 3.2264e-05 163.824 9742.24 11691.2 
363 0.5486 0.5486 0 0.00190378 0.00190378 -0.000142278 220.725 8956.67 12653.7 
403 0.6696 0.6696 0 0.0017058 0.0017058 0.000148631 265.433 7805.54 11238.8 
443 0.7938 0.7938 0 0.00172186 0.00172186 0.000367629 315.098 10583.2 14755.9 
483 0.872 0.872 0 0.0019937 0.0019937 0.000184041 346.292 11160.9 14737.8 
523 0.8774 0.8774 0 0.00166033 0.00166033 3.60917e-05 350.73 10471.3 14265 
563 0.8514 0.8514 0 0.00183357 0.00183357 7.62696e-05 339.606 9726.93 13825.8 
603 0.1008 0.1008 0 -0.00369437 -0.00369437 -0.000104892 36.9437 701.939 861.649 
643 0.2312 0.2312 0 -0.00892985 -0.00892985 3.97117e-05 89.2985 1560.48 2108.93 
683 0.2354 0.2354 0 -0.00923262 -0.00923262 -2.12286e-05 92.3262 3502.6 4084.99 
723 0.2442 0.2442 0 -0.00996572 -0.00996572 -2.90689e-05 99.6572 3822.69 5019.68 
763 0.256 0.256 0 -0.0102447 -0.0102447 -0.000125078 102.447 3337.05 4280.78 
803 0.233 0.233 0 -0.00900208 -0.00900208 -5.41085e-06 90.0208 2527.9 3057.05 
843 0.2296 0.2296 0 -0.00904199 -0.00904199 0.000110982 90.4199 991.033 2135.06 
883 0.209 0.209 0 -0.00805583 -0.00805583 1.3915e-05 80.5583 1509.18 1489.71 
923 0.8182 0.8182 0 0.00245986 0.00245986 2.82575e-05 325.313 10014.4 12659.4 
963 0.8796 0.8796 0 0.00210283 0.00210283 0.000576927 346.092 11339.2 15106.7 
1003 0.8858 0.8858 0 0.00161959 0.00161959 -0.000273587 350.4 10999.3 15452.2 
1043 0.8128 0.8128 0 0.00195689 0.00195689 4.54977e-05 324.355 9842.28 13656.4 
1083 0.7486 0.7486 0 0.00197084 0.00197084 0.000404762 297.712 8810.19 11837.2 
1123 0.6082 0.6082 0 0.00190424 0.00190424 -0.000116664 240.879 8857.88 11610.1 
1163 0.4772 0.4772 0 0.00282293 0.00282293 -2.09733e-05 191.702 8522.84 12826.7 
4 7.3812 7.3812 0 0.306802 0.306802 -0.000383341 3068.02 233802 321804 
44 9.9598 9.9598 0 0.405184 0.405184 -0.000901987 4051.84 202780 296699 
84 10.602 10.602 0 0.429244 0.429244 0.00144459 4292.44 186612 269959 
124 10.874 10.874 0 0.439114 0.439114 0.000122517 4391.14 178452 258449 
164 10.7804 10.7804 0 0.434985 0.434985 0.000408215 4349.85 178535 260913 
204 10.7898 10.7898 0 0.436545 0.436545 0.000519409 4365.45 183957 271935 
244 10.1922 10.1922 0 0.414471 0.414471 -0.00056453 4144.71 192274 281418 
284 8.891 8.891 0 0.366928 0.366928 6.22685e-06 3669.28 225167 317395 
324 0.3952 0.3952 0 0.00303283 0.00303283 9.85231e-06 157.943 9010.86 11684.3 
364 0.5632 0.5632 0 0.00195376 0.00195376 1.33921e-05 225.037 8674.43 12360.3 
404 0.6916 0.6916 0 0.00182841 0.00182841 0.000151465 276.887 8403.59 12996.3 
444 0.7996 0.7996 0 0.00187444 0.00187444 -0.000207908 315.907 10681.2 15136.6 
484 0.8472 0.8472 0 0.00220713 0.00220713 0.000182907 335.787 9145.89 13924.6 
524 0.9108 0.9108 0 0.00170475 0.00170475 0.000110514 361.467 8878.02 12418.6 
564 0.88 0.88 0 0.00253502 0.00253502 0.000111544 350.995 9956.15 14082.7 
604 0.1344 0.1344 0 -0.0050141 -0.0050141 3.39392e-05 50.141 518.456 1081.5 
644 0.2312 0.2312 0 -0.00900535 -0.00900535 0.000133162 90.0535 2799.12 3146.41 
684 0.219 0.219 0 -0.00884158 -0.00884158 0.000192943 88.4158 1452.78 1890.35 
724 0.2418 0.2418 0 -0.00976798 -0.00976798 -0.000144348 97.6798 1990.67 3505.32 
764 0.2566 0.2566 0 -0.0102916 -0.0102916 -6.61282e-05 102.916 4423.85 6228.57 
804 0.2344 0.2344 0 -0.00937007 -0.00937007 -0.000278415 93.7007 1888.4 2589.5 
844 0.2204 0.2204 0 -0.00853351 -0.00853351 3.08499e-05 85.3351 2410.28 2837.47 
884 0.2024 0.2024 0 -0.00788556 -0.00788556 -0.000135443 78.8556 882.083 448.185 
924 0.829 0.829 0 0.00277509 0.00277509 -0.000109759 332.855 12006.6 16786.4 
964 0.8874 0.8874 0 0.00197235 0.00197235 -0.000213823 352.693 12032.9 14947.6 
1004 0.876 0.876 0 0.00219442 0.00219442 0.000337652 345.468 11878.6 15520.6 
1044 0.8114 0.8114 0 0.0021502 0.0021502 0.000592754 322.767 9968.18 13847.2 
1084 0.7206 0.7206 0 0.00164484 0.00164484 0.00020417 286.968 10416.5 13463.7 
1124 0.5858 0.5858 0 0.00176615 0.00176615 4.07302e-05 233.834 9428.86 13293 
1164 0.4676 0.4676 0 0.00267661 0.00267661 4.29461e-05 190.786 8342.98 11589 
5 7.4376 7.4376 0 0.310369 0.310369 0.00119079 3103.69 227813 317390 
45 10.109 10.109 0 0.411937 0.411937 0.000778741 4119.37 200076 294273 
85 10.7318 10.7318 0 0.433614 0.433614 0.00224805 4336.14 183976 271185 
125 11.0266 11.0266 0 0.445838 0.445838 -0.000527889 4458.38 190283 274021 
165 10.8648 10.8648 0 0.438625 0.438625 0.00167617 4386.25 179543 263857 
205 10.662 10.662 0 0.432132 0.432132 -0.00185504 4321.32 187302 268694 
245 10.3148 10.3148 0 0.419642 0.419642 0.000501223 4196.42 199069 290598 
285 8.9172 8.9172 0 0.366882 0.366882 0.0016163 3668.82 216983 305672 
325 0.4244 0.4244 0 0.00293849 0.00293849 -2.10931e-05 170.32 9787.63 12812.3 
365 0.545 0.545 0 0.0019347 0.0019347 -0.000226566 217.805 9854.11 12746.6 
405 0.6784 0.6784 0 0.00165617 0.00165617 -0.000420143 268.051 9640.54 13092.4 
445 0.788 0.788 0 0.00128365 0.00128365 -0.000179492 315.198 12598.5 16928.8 
485 0.846 0.846 0 0.00166919 0.00166919 0.000456688 336.004 9274.09 13108.6 
525 0.8878 0.8878 0 0.00175653 0.00175653 0.000108167 350.792 12046.8 16070.4 
565 0.8688 0.8688 0 0.00273926 0.00273926 -3.56759e-05 342.351 10548.6 15492.6 
605 0.1472 0.1472 0 -0.00555319 -0.00555319 0.000181244 55.5319 855.595 1806.45 
645 0.223 0.223 0 -0.00879799 -0.00879799 -5.04777e-05 87.9799 1543.7 2498.99 
685 0.2268 0.2268 0 -0.00902814 -0.00902814 -0.000109866 90.2814 1560.34 3314.14 
725 0.2476 0.2476 0 -0.0099504 -0.0099504 -1.02786e-05 99.504 3862.84 4959.03 
765 0.2416 0.2416 0 -0.00970655 -0.00970655 0.000136399 97.0655 4047.27 4874.93 
805 0.2274 0.2274 0 -0.00895967 -0.00895967 0.000114151 89.5967 1063.98 1559.8 
845 0.2244 0.2244 0 -0.0088253 -0.0088253 -5.39312e-05 88.253 1150.88 1698.76 
885 0.209 0.209 0 -0.0082584 -0.0082584 -5.24836e-05 82.584 2540.31 3583.89 
925 0.8462 0.8462 0 0.00243466 0.00243466 0.000379622 335.504 11547.7 17016.1 
965 0.8824 0.8824 0 0.00169542 0.00169542 -7.20949e-05 352.806 9238.49 14351.1 
1005 0.8514 0.8514 0 0.00226088 0.00226088 2.36601e-05 340.39 9076.01 12987.7 
1045 0.8294 0.8294 0 0.00180985 0.00180985 -2.6778e-05 327.842 12616.5 17117.5 
1085 0.7284 0.7284 0 0.00185464 0.00185464 -6.37168e-05 292.275 10308.2 14114.7 
1125 0.608 0.608 0 0.00197471 0.00197471 0.000132252 244.457 9053.49 11303.7 
1165 0.464 0.464 0 0.00228661 0.00228661 -1.26003e-06 184.451 9270.59 11715.9 
6 7.6422 7.6422 0 0.31809 0.31809 0.000471587 3180.9 233249 326473 
46 9.9896 9.9896 0 0.407733 0.407733 -0.000138956 4077.33 189611 283934 
86 10.656 10.656 0 0.430462 0.430462 -0.000392165 4304.62 190336 270635 
126 10.8728 10.8728 0 0.439124 0.439124 0.000334745 4391.24 176841 263552 
166 10.8842 10.8842 0 0.438832 0.438832 0.000345824 4388.32 182908 265648 
206 10.7604 10.7604 0 0.434806 0.434806 -6.9254e-05 4348.06 184207 265014 
246 10.2918 10.2918 0 0.4179 0.4179 0.000926269 4179 204079 286816 
286 8.8766 8.8766 0 0.366469 0.366469 -0.0014022 3664.69 228572 321436 
326 0.4094 0.4094 0 0.00316169 0.00316169 0.0001314 163.558 10202.1 13396.2 
366 0.5846 0.5846 0 0.00194928 0.00194928 0.000130486 230.813 7658.76 12844.5 
406 0.6928 0.6928 0 0.00206408 0.00206408 5.97071e-05 276.371 9055.89 12085.9 
446 0.7918 0.7918 0 0.00175226 0.00175226 -0.00012088 314.338 8878.51 13184.1 
486 0.8428 0.8428 0 0.00178854 0.00178854 0.000158045 336.199 10870.7 14078.3 
526 0.9122 0.9122 0 0.00219361 0.00219361 -0.000254213 363.547 12003.6 16036.7 
566 0.8606 0.8606 0 0.00271125 0.00271125 -0.000189568 344.066 11959.7 16858 
606 0.1476 0.1476 0 -0.00579485 -0.00579485 1.17047e-05 57.9485 1222.01 1535.5 
646 0.222 0.222 0 -0.00876061 -0.00876061 4.0608e-05 87.6061 2237.08 2637.24 
686 0.227 0.227 0 -0.00905181 -0.00905181 -3.09096e-05 90.5181 2301.44 2858.47 
726 0.2368 0.2368 0 -0.00936554 -0.00936554 -4.61724e-05 93.6554 3235.68 3884.1 
766 0.2606 0.2606 0 -0.0101842 -0.0101842 -4.76632e-05 101.842 3379.56 5101.33 
806 0.2368 0.2368 0 -0.00942656 -0.00942656 8.79499e-05 94.2656 1681.74 2619.93 
846 0.2312 0.2312 0 -0.00915354 -0.00915354 -0.000113063 91.5354 2582.99 3114.5 
886 0.207 0.207 0 -0.00808444 -0.00808444 -0.000113853 80.8444 936.175 1453.42 
926 0.8108 0.8108 0 0.00225167 0.00225167 -0.000288204 325.323 11234.5 15909.9 
966 0.8964 0.8964 0 0.00230628 0.00230628 0.000170753 356.584 9608.9 13733.5 
1006 0.8542 0.8542 0 0.00162871 0.00162871 0.000121854 341.2 10404.2 15031.5 
1046 0.8158 0.8158 0 0.00206108 0.00206108 0.000152623 324.18 9610.45 12711.5 
1086 0.725 0.725 0 0.00180581 0.00180581 -0.000394893 288.428 9478.32 12961.4 
1126 0.5932 0.5932 0 0.00192582 0.00192582 -0.000460067 237.507 9388.92 12925.5 
1166 0.4354 0.4354 0 0.00253051 0.00253051 0.000147119 173.631 7727.05 10610.1 
7 8.0394 8.0394 0 0.333409 0.333409 -0.000310461 3334.09 233704 325842 
47 10.2244 10.2244 0 0.415121 0.415121 0.000364595 4151.21 203159 297036 
87 10.775 10.775 0 0.436935 0.436935 -0.000880735 4369.35 182685 268871 
127 10.8508 10.8508 0 0.436875 0.436875 0.000726147 4368.75 184403 264395 
167 11.0132 11.0132 0 0.444014 0.444014 0.000143529 4440.14 185487 267343 
207 10.7584 10.7584 0 0.434927 0.434927 0.00122031 4349.27 188742 276727 
247 10.3528 10.3528 0 0.419847 0.419847 -4.56698e-05 4198.47 199350 290016 
287 8.6422 8.6422 0 0.35669 0.35669 0.000420897 3566.9 217527 312916 
327 0.4186 0.4186 0 0.0027401 0.0027401 -5.33726e-06 170.992 8754.94 11832.5 
367 0.5654 0.5654 0 0.00203838 0.00203838 0.000363125 224.217 8611.43 11613.8 
407 0.7136 0.7136 0 0.00192806 0.00192806 3.3205e-05 283.813 11165.6 14998.9 
447 0.7786 0.7786 0 0.00170722 0.00170722 1.96449e-05 312.442 10943.5 15216.4 
487 0.8548 0.8548 0 0.00178662 0.00178662 0.000225481 337.074 10579.9 15401.2 
527 0.8766 0.8766 0 0.00167011 0.00167011 0.000352941 348.807 10641 14155.9 
567 0.8502 0.8502 0 0.00242265 0.00242265 7.01873e-06 339.966 10041.4 13229.2 
607 0.1562 0.1562 0 -0.00609594 -0.00609594 9.38826e-05 60.9594 1433.64 1995.69 
647 0.2194 0.2194 0 -0.00861434 -0.00861434 7.06244e-05 86.1434 2112.57 2935.69 
687 0.2336 0.2336 0 -0.00895763 -0.00895763 1.19245e-05 89.5763 2108.94 3954.26 
727 0.237 0.237 0 -0.00952532 -0.00952532 -4.96982e-05 95.2532 2220.65 3008.9 
767 0.242 0.242 0 -0.00980431 -0.00980431 2.48531e-05 98.0431 3390.43 4577.44 
807 0.231 0.231 0 -0.0094263 -0.0094263 3.85613e-05 94.263 3255.76 4219.83 
847 0.2302 0.2302 0 -0.00882893 -0.00882893 -5.36624e-06 88.2893 1195.25 2592.15 
887 0.2002 0.2002 0 -0.00783945 -0.00783945 -0.00013617 78.3945 1654.04 2109.91 
927 0.83 0.83 0 0.00268801 0.00268801 -0.000236032 329.511 11111.8 14812.3 
967 0.8866 0.8866 0 0.00222685 0.00222685 -4.13946e-05 350.477 12768.7 16290.2 
1007 0.891 0.891 0 0.00221689 0.00221689 -0.000262195 351.643 12059.9 16664.2 
1047 0.7934 0.7934 0 0.00157105 0.00157105 -1.74506e-05 316.744 10853.5 14528.7 
1087 0.7032 0.7032 0 0.00140963 0.00140963 -5.24292e-05 282.541 9399.32 13708.7 
1127 0.5746 0.5746 0 0.00172234 0.00172234 0.000496321 233.377 10226.5 13528.7 
1167 0.4498 0.4498 0 0.00264366 0.00264366 5.71194e-05 182.457 9116.05 11149.8 
8 7.9402 7.9402 0 0.329235 0.329235 -0.000632858 3292.35 224013 311091 
48 10.1378 10.1378 0 0.412785 0.412785 0.000906546 4127.85 202255 287695 
88 10.7244 10.7244 0 0.4346 0.4346 -0.000413329 4346 189445 269582 
128 10.9348 10.9348 0 0.441405 0.441405 0.00153833 4414.05 179778 263965 
168 10.8342 10.8342 0 0.437088 0.437088 -0.000548519 4370.88 176158 260142 
208 10.5892 10.5892 0 0.427502 0.427502 0.000476208 4275.02 177633 264807 
248 10.2772 10.2772 0 0.417948 0.417948 -0.000216808 4179.48 201296 291118 
288 8.676 8.676 0 0.357097 0.357097 0.000688746 3570.97 227802 324899 
328 0.4104 0.4104 0 0.00284647 0.00284647 0.000168654 166.096 8733.12 10853.9 
368 0.5746 0.5746 0 0.00158222 0.00158222 6.97379e-05 229.474 9227.84 12300.7 
408 0.696 0.696 0 0.00161759 0.00161759 5.78551e-05 278.291 9532.52 13882.6 
448 0.7856 0.7856 0 0.00249878 0.00249878 1.0413e-05 310.591 11458.7 14891.2 
488 0.8746 0.8746 0 0.00200644 0.00200644 0.000113075 349.176 10469 14376.1 
528 0.864 0.864 0 0.0017629 0.0017629 1.74867e-05 343.362 10091.6 14788.3 
568 0.8466 0.8466 0 0.00252502 0.00252502 -0.000189601 335.688 11319.6 16475.3 
608 0.1576 0.1576 0 -0.00617697 -0.00617697 0.000149591 61.7697 1497.34 2131.72 
648 0.2144 0.2144 0 -0.0084441 -0.0084441 -0.000156756 84.441 946.489 1647.26 
688 0.2164 0.2164 0 -0.00848941 -0.00848941 0.000118171 84.8941 2418.89 3699.61 
728 0.2498 0.2498 0 -0.0100892 -0.0100892 2.93881e-05 100.892 3877.25 5400.29 
768 0.2472 0.2472 0 -0.00993758 -0.00993758 -0.000130797 99.3758 4255.63 5538.16 
808 0.2288 0.2288 0 -0.00897735 -0.00897735 4.95155e-05 89.7735 1532.72 2618.89 
848 0.2268 0.2268 0 -0.00876796 -0.00876796 -8.03555e-05 87.6796 1714.77 1183.2 
888 0.1994 0.1994 0 -0.00774677 -0.00774677 8.52547e-05 77.4677 1713.62 1973.96 
928 0.8482 0.8482 0 0.00283047 0.00283047 -0.000270931 337.259 11152 14916.3 
968 0.9 0.9 0 0.00263517 0.00263517 0.000250378 358.315 10026.4 14753.7 
1008 0.8894 0.8894 0 0.00167908 0.00167908 -0.000218359 349.972 9460.56 14347 
1048 0.792 0.792 0 0.00184061 0.00184061 0.000255576 317.143 12179.9 15820.5 
1088 0.72 0.72 0 0.00205256 0.00205256 -0.000114712 286.082 11933.8 15650.2 
1128 0.5678 0.5678 0 0.00182233 0.00182233 -0.000282471 224.944 7210.14 10636 
1168 0.4478 0.4478 0 0.00265643 0.00265643 3.989e-05 180.882 8863.5 10453.7 
9 8.176 8.176 0 0.340513 0.340513 -0.000672537 3405.13 237642 324026 
49 10.3018 10.3018 0 0.41764 0.41764 2.39501e-07 4176.4 206467 296425 
89 10.5692 10.5692 0 0.427618 0.427618 -0.000927608 4276.18 185783 266032 
129 10.925 10.925 0 0.440343 0.440343 -0.000421809 4403.43 175740 254602 
169 10.9416 10.9416 0 0.441478 0.441478 0.000937744 4414.78 184430 267915 
209 10.876 10.876 0 0.439354 0.439354 0.000684302 4393.54 182368 270742 
249 10.1128 10.1128 0 0.410676 0.410676 -0.000118565 4106.76 197543 279794 
289 8.4018 8.4018 0 0.348643 0.348643 0.000519631 3486.43 229390 321108 
329 0.4352 0.4352 0 0.00307188 0.00307188 4.79337e-05 177.562 8391.22 10924.9 
369 0.5678 0.5678 0 0.00205179 0.00205179 -1.39922e-05 227.153 9739.59 12301.5 
409 0.6914 0.6914 0 0.00162493 0.00162493 -0.000100931 274.525 10427.5 12837.7 
449 0.7978 0.7978 0 0.00156461 0.00156461 0.000369144 318.819 11522.9 15415.4 
489 0.8472 0.8472 0 0.00201323 0.00201323 -0.000196343 334.556 12517.6 16352.6 
529 0.8778 0.8778 0 0.00175991 0.00175991 -0.000124857 351.94 10151.3 13625.4 
569 0.87 0.87 0 0.00246404 0.00246404 0.00014231 354.262 11448.4 14066.9 
609 0.1754 0.1754 0 -0.00682151 -0.00682151 0.000113539 68.2151 763.603 1514.24 
649 0.2252 0.2252 0 -0.00875368 -0.00875368 7.15857e-05 87.5368 2095 2372.95 
689 0.2356 0.2356 0 -0.00930883 -0.00930883 0.000109986 93.0883 3108.95 3981.19 
729 0.2392 0.2392 0 -0.00970196 -0.00970196 8.47323e-05 97.0196 4336.49 6980.58 
769 0.2342 0.2342 0 -0.00940728 -0.00940728 -9.55989e-05 94.0728 3331.2 4579.86 
809 0.2262 0.2262 0 -0.0090129 -0.0090129 2.69285e-05 90.129 3214.4 4029.31 
849 0.2264 0.2264 0 -0.00878665 -0.00878665 0.00015214 87.8665 484.235 1144.09 
889 0.1818 0.1818 0 -0.00726633 -0.00726633 8.7636e-05 72.6633 798.456 1400.09 
929 0.8354 0.8354 0 0.00252467 0.00252467 0.000183662 330.083 11613.9 15957.2 
969 0.8504 0.8504 0 0.00150948 0.00150948 3.65169e-05 337.564 10494.2 12447.6 
1009 0.8576 0.8576 0 0.0017184 0.0017184 6.64382e-05 338.91 11257 14058.8 
1049 0.8142 0.8142 0 0.00195993 0.00195993 -7.70789e-05 325.857 11297.5 16210.6 
1089 0.7086 0.7086 0 0.00198763 0.00198763 -4.67815e-05 284.964 10739.4 14198.5 
1129 0.5848 0.5848 0 0.00228785 0.00228785 -2.41082e-05 232.932 9396.46 12891.3 
1169 0.428 0.428 0 0.00284396 0.00284396 -0.000249371 169.981 8596.53 11355.8 
10 8.4318 8.4318 0 0.348847 0.348847 3.4336e-05 3488.47 223017 325968 
50 10.2046 10.2046 0 0.414058 0.414058 -0.000553109 4140.58 197231 288907 
90 10.7246 10.7246 0 0.433783 0.433783 -0.000475997 4337.83 189279 272918 
130 10.9558 10.9558 0 0.442649 0.442649 0.000435797 4426.49 177265 261412 
170 10.8464 10.8464 0 0.438016 0.438016 -0.00139462 4380.16 186841 274932 
210 10.6762 10.6762 0 0.430919 0.430919 -0.00156996 4309.19 198092 283729 
250 10.158 10.158 0 0.41222 0.41222 0.000303934 4122.2 199800 287695 
290 8.2932 8.2932 0 0.343521 0.343521 -0.00102289 3435.21 221450 312893 
330 0.4192 0.4192 0 0.00297491 0.00297491 0.000151652 169.861 10430.5 13430.2 
370 0.591 0.591 0 0.00218472 0.00218472 -5.90373e-05 237.222 8706 11379.8 
410 0.7038 0.7038 0 0.00168928 0.00168928 0.000336559 282.951 9095.29 13985.9 
450 0.7916 0.7916 0 0.00207532 0.00207532 0.000218917 321.092 10388 13543.8 
490 0.8652 0.8652 0 0.00196985 0.00196985 8.65644e-06 341.41 9846.92 13483.2 
530 0.916 0.916 0 0.00260442 0.00260442 3.62025e-05 362.265 9952.7 12595 
570 0.8646 0.8646 0 0.0023003 0.0023003 2.38996e-05 340.941 11952.9 15677.4 
610 0.1864 0.1864 0 -0.00721097 -0.00721097 -6.96247e-05 72.1097 1049.46 1561.89 
650 0.2428 0.2428 0 -0.0097837 -0.0097837 -1.78307e-05 97.837 1654.25 1851.06 
690 0.2224 0.2224 0 -0.00879121 -0.00879121 3.31289e-05 87.9121 2101.43 2906.08 
730 0.244 0.244 0 -0.00959087 -0.00959087 0.000109403 95.9087 2642.47 3662.09 
770 0.2482 0.2482 0 -0.0100224 -0.0100224 7.27033e-05 100.224 3171.57 5444.39 
810 0.2244 0.2244 0 -0.00901441 -0.00901441 -0.000256779 90.1441 2172.04 3858.61 
850 0.2138 0.2138 0 -0.00831184 -0.00831184 0.000256282 83.1184 2456.76 3168.37 
890 0.1824 0.1824 0 -0.00717421 -0.00717421 0.000164226 71.7421 1463.97 2071.16 
930 0.845 0.845 0 0.00215392 0.00215392 -0.000167347 338.894 11068.8 13818.6 
970 0.8762 0.8762 0 0.00204365 0.00204365 0.000182184 350.391 12515 15724.3 
1010 0.874 0.874 0 0.00221372 0.00221372 0.000523888 345.735 10041.1 14868.9 
1050 0.7904 0.7904 0 0.00178096 0.00178096 1.43546e-05 314.868 9966.8 13522.8 
1090 0.6892 0.6892 0 0.001639 0.001639 0.000289244 275.037 8629 11662.1 
1130 0.6066 0.6066 0 0.00199558 0.00199558 7.92098e-05 241.932 9293.2 12067.2 
1170 0.4284 0.4284 0 0.00273866 0.00273866 0.000233534 171.959 10404.1 12945.6 
11 8.3552 8.3552 0 0.346289 0.346289 -0.000773102 3462.89 225586 319920 
51 10.053 10.053 0 0.409105 0.409105 -0.000341471 4091.05 200433 287555 
91 10.7156 10.7156 0 0.431817 0.431817 -0.000943431 4318.17 189929 275428 
131 10.8762 10.8762 0 0.438092 0.438092 -0.000203583 4380.92 187410 268613 
171 10.8734 10.8734 0 0.439538 0.439538 0.000434261 4395.38 175172 260108 
211 10.8032 10.8032 0 0.435938 0.435938 0.00145305 4359.38 185509 275116 
251 10.295 10.295 0 0.417377 0.417377 -0.000184912 4173.77 199086 293257 
291 8.3426 8.3426 0 0.346437 0.346437 -8.80353e-06 3464.37 229564 323283 
331 0.4308 0.4308 0 0.00263936 0.00263936 0.000436088 175.214 8800.55 11066.1 
371 0.5912 0.5912 0 0.00155753 0.00155753 -9.42095e-05 237.055 8703.38 12429.4 
411 0.715 0.715 0 0.00188217 0.00188217 8.46579e-05 282.569 8999.7 12290.1 
451 0.7716 0.7716 0 0.00171696 0.00171696 0.000321808 311.663 11430.3 14874.6 
491 0.8554 0.8554 0 0.00189031 0.00189031 0.000220057 339.814 10512.2 13482.3 
531 0.8772 0.8772 0 0.00235552 0.00235552 0.000287796 350.75 12090.8 14608.6 
571 0.846 0.846 0 0.0022688 0.0022688 -0.000159994 334.375 11459.4 14023.9 
611 0.1952 0.1952 0 -0.0075705 -0.0075705 1.95927e-05 75.705 2192.37 2382.09 
651 0.2338 0.2338 0 -0.00913218 -0.00913218 6.05918e-05 91.3218 1717.69 1906.55 
691 0.2328 0.2328 0 -0.0092132 -0.0092132 5.09584e-05 92.132 1901.06 3009.58 
731 0.2484 0.2484 0 -0.0101212 -0.0101212 0.000131485 101.212 3685.25 5092.32 
771 0.2482 0.2482 0 -0.0100496 -0.0100496 0.000303874 100.496 2752.23 4182.83 
811 0.2226 0.2226 0 -0.00880852 -0.00880852 -5.57763e-05 88.0852 2999.25 4187.98 
851 0.2348 0.2348 0 -0.00921015 -0.00921015 3.64689e-05 92.1015 1381.6 2453.73 
891 0.1802 0.1802 0 -0.00691609 -0.00691609 0.000169439 69.1609 532.749 1251.3 
931 0.8374 0.8374 0 0.00238683 0.00238683 0.000117153 332.249 10710 14497.4 
971 0.8988 0.8988 0 0.00200532 0.00200532 0.000355691 357.523 11160.2 14232.1 
1011 0.8526 0.8526 0 0.00162067 0.00162067 -0.000483519 341.299 9600.66 12794 
1051 0.7854 0.7854 0 0.00179462 0.00179462 0.000265425 311.105 9627.89 13591.3 
1091 0.728 0.728 0 0.00195791 0.00195791 7.66655e-06 293.69 11902 15651.8 
1131 0.543 0.543 0 0.00183001 0.00183001 -3.98153e-05 216.307 10701.2 12783.8 
1171 0.4172 0.4172 0 0.00273749 0.00273749 -0.000277831 170.279 9096.93 12896.7 
12 8.5138 8.5138 0 0.352514 0.352514 0.00188835 3525.14 225982 321567 
52 10.1744 10.1744 0 0.414198 0.414198 -0.0006155 4141.98 195273 282667 
92 10.7226 10.7226 0 0.433184 0.433184 0.000701261 4331.84 177241 264319 
132 10.9828 10.9828 0 0.442077 0.442077 0.000707713 4420.77 183587 261320 
172 10.9146 10.9146 0 0.439873 0.439873 -0.000867806 4398.73 180596 268864 
212 10.5888 10.5888 0 0.428523 0.428523 -0.00103783 4285.23 193065 279985 
252 10.1976 10.1976 0 0.414141 0.414141 0.00153046 4141.41 204168 294972 
292 8.1594 8.1594 0 0.338868 0.338868 0.000232342 3388.68 228592 323009 
332 0.4354 0.4354 0 0.00248896 0.00248896 -7.651e-05 173.432 7508.13 11174.8 
372 0.5896 0.5896 0 0.00215873 0.00215873 0.00026788 233.771 7950 10901.7 
412 0.716 0.716 0 0.00156682 0.00156682 8.52543e-05 284.358 9899.34 13498.2 
452 0.7764 0.7764 0 0.00170161 0.00170161 4.82139e-05 310.075 10313.5 13896.4 
492 0.8692 0.8692 0 0.00176373 0.00176373 -0.000364005 341.068 10731.7 14951.9 
532 0.8774 0.8774 0 0.0021776 0.0021776 4.00026e-05 352.819 11893.3 16463.3 
572 0.8504 0.8504 0 0.00241676 0.00241676 0.000162159 342.624 11079.7 17395 
612 0.2038 0.2038 0 -0.00798677 -0.00798677 0.000173938 79.8677 1208.9 1466.56 
652 0.2256 0.2256 0 -0.00877596 -0.00877596 9.24144e-06 87.7596 1109.08 1528.58 
692 0.237 0.237 0 -0.00939396 -0.00939396 -0.000108174 93.9396 1983.23 3359.75 
732 0.2514 0.2514 0 -0.0101868 -0.0101868 -1.10286e-05 101.868 4452.64 6425.04 
772 0.2508 0.2508 0 -0.0101697 -0.0101697 -5.92551e-06 101.697 3667.37 5185.59 
812 0.2302 0.2302 0 -0.00914845 -0.00914845 -1.26893e-06 91.4845 3027.28 4008.72 
852 0.2334 0.2334 0 -0.00909456 -0.00909456 -0.000155889 90.9456 1292.45 2748.93 
892 0.1674 0.1674 0 -0.00664539 -0.00664539 -0.000125346 66.4539 1354.37 1627.87 
932 0.8638 0.8638 0 0.00228837 0.00228837 -0.000192535 344.507 9898.79 13930.6 
972 0.9018 0.9018 0 0.00219177 0.00219177 -0.000198859 360.035 12137.7 16787.9 
1012 0.883 0.883 0 0.00195922 0.00195922 0.0001406 348.556 9874.56 14083.8 
1052 0.8024 0.8024 0 0.00165682 0.00165682 -0.000147499 318.248 7004.41 10445.2 
1092 0.6824 0.6824 0 0.00173226 0.00173226 -0.000201412 274.371 8484.97 11397.5 
1132 0.5804 0.5804 0 0.00232718 0.00232718 -4.18252e-05 232.827 8345.27 12057 
1172 0.4288 0.4288 0 0.00322419 0.00322419 -8.79908e-05 168.407 9412.06 12161.1 
13 8.575 8.575 0 0.353619 0.353619 -0.00040008 3536.19 226521 321279 
53 10.2272 10.2272 0 0.41696 0.41696 0.000165614 4169.6 199378 286429 
93 10.8646 10.8646 0 0.43811 0.43811 -0.000202216 4381.1 189383 274623 
133 10.9214 10.9214 0 0.439714 0.439714 -0.00145512 4397.14 177417 260168 
173 11.1178 11.1178 0 0.447253 0.447253 0.000640534 4472.53 187596 272740 
213 10.6882 10.6882 0 0.432231 0.432231 -0.000373878 4322.31 191457 275636 
253 10.2962 10.2962 0 0.416993 0.416993 0.000664169 4169.93 205488 296157 
293 7.8844 7.8844 0 0.327231 0.327231 -0.00252173 3272.31 229339 321986 
333 0.4314 0.4314 0 0.00229841 0.00229841 0.000296571 175.223 10805 13683.2 
373 0.585 0.585 0 0.00206592 0.00206592 0.000214325 234.439 8060.8 11621.4 
413 0.7148 0.7148 0 0.00198414 0.00198414 -1.60527e-05 284.608 10639.6 13034.8 
453 0.7934 0.7934 0 0.00150805 0.00150805 -0.000372051 317.824 9469.93 13943.7 
493 0.8526 0.8526 0 0.0018593 0.0018593 -0.00040441 339.139 10271.7 13126.1 
533 0.8964 0.8964 0 0.00235511 0.00235511 6.49978e-05 352.412 8964.93 12959.5 
573 0.8534 0.8534 0 0.00250765 0.00250765 -0.000181703 338.438 10730.5 14243.4 
613 0.1948 0.1948 0 -0.00755849 -0.00755849 -1.25267e-05 75.5849 1224.28 1417.44 
653 0.2238 0.2238 0 -0.00881478 -0.00881478 -2.2305e-06 88.1478 2628.48 3836.16 
693 0.2292 0.2292 0 -0.00908022 -0.00908022 0.000122511 90.8022 2140.25 2990.15 
733 0.2486 0.2486 0 -0.0101168 -0.0101168 -0.000127386 101.168 4565.73 5402.26 
773 0.231 0.231 0 -0.00918377 -0.00918377 -0.000212802 91.8377 3559.54 4737.91 
813 0.2384 0.2384 0 -0.00937109 -0.00937109 0.000124945 93.7109 1761.81 3168.26 
853 0.23 0.23 0 -0.00901122 -0.00901122 0.000117846 90.1122 1895.81 2863.66 
893 0.17 0.17 0 -0.00662176 -0.00662176 -8.55758e-06 66.2176 1009.7 1511.66 
933 0.868 0.868 0 0.00285353 0.00285353 0.000230527 344.901 11381.5 15159.6 