ITEM: TIMESTEP
25000
ITEM: NUMBER OF SURFS
1256
ITEM: BOX BOUNDS oo rr pp
0 0.3
0 0.3
-0.5 0.5
ITEM: SURFS id f_4[1] f_4[2] f_4[3] f_4[4] f_4[5] f_4[6] f_4[7] f_4[8] f_4[9] 
1 0.0542 0.0542 0 0.000116941 0.000116941 4.07687e-07 21.5225 4170.69 5748.04 
81 10.235 10.235 0 0.0426072 0.0426072 -6.3132e-05 426.072 27436.5 38338.2 
161 10.7474 10.7474 0 0.0442274 0.0442274 4.50974e-05 442.274 25325.5 35014.9 
241 10.3032 10.3032 0 0.0427156 0.0427156 0.000106608 427.156 26109 35826.7 
321 0.2702 0.2702 0 0.00117435 0.00117435 -7.91797e-06 117.212 18799.3 26471.1 
401 0.7698 0.7698 0 0.000805328 0.000805328 -3.39999e-05 34.6365 5606.27 7405.9 
481 0.8896 0.8896 0 0.0006972 0.0006972 5.55788e-05 39.2548 4967.25 6831.96 
561 0.89 0.89 0 0.000661395 0.000661395 -3.87042e-05 39.0083 4671.39 6430.32 
641 0.0072 0.0072 0 -2.18643e-05 -2.18643e-05 -4.24665e-07 2.74133 301.333 481.673 
721 0.1762 0.1762 0 -0.000741169 -0.000741169 -7.6944e-06 7.41169 612.701 849.945 
801 0.2182 0.2182 0 -0.0009499 -0.0009499 -1.26962e-05 9.499 826.56 1182.39 
881 0.148 0.148 0 -0.000635324 -0.000635324 -6.59752e-06 6.35324 483.442 791.917 
961 0.6138 0.6138 0 0.000875624 0.000875624 -7.07295e-06 27.5472 4305.32 5556.84 
1041 0.8952 0.8952 0 0.000682459 0.000682459 -1.17657e-05 38.9359 4627.32 6385.12 
1121 0.8602 0.8602 0 0.000732746 0.000732746 1.71165e-05 37.7201 4997.97 6814.53 
1201 0.7278 0.7278 0 0.000806413 0.000806413 8.4011e-06 32.5074 5122.51 6792.43 
2 0.0706 0.0706 0 0.000170317 0.000170317 1.14963e-05 26.8291 3844.22 5928.06 
82 10.2008 10.2008 0 0.0425976 0.0425976 0.000163784 425.976 26953.5 37171.2 
162 10.6724 10.6724 0 0.0440773 0.0440773 -8.98393e-05 440.773 25043 34646.6 
242 10.35 10.35 0 0.042983 0.042983 -0.000155307 429.83 26653.8 36731.2 
322 0.226 0.226 0 0.000940541 0.000940541 -9.1662e-06 95.763 16635 22902 
402 0.7464 0.7464 0 0.000795155 0.000795155 -1.99693e-05 33.1989 5176.42 6859.44 
482 0.9004 0.9004 0 0.000666943 0.000666943 -4.38672e-06 39.7824 5164.59 7356.24 
562 0.9032 0.9032 0 0.00063813 0.00063813 2.75799e-05 39.5722 4800.86 6878.58 
642 0.0058 0.0058 0 -1.75917e-05 -1.75917e-05 4.9834e-07 1.96472 267.809 343.771 
722 0.1598 0.1598 0 -0.000669673 -0.000669673 -1.27458e-05 6.69673 536.036 656.963 
802 0.219 0.219 0 -0.000956216 -0.000956216 -5.48639e-06 9.56216 729.03 1016.86 
882 0.161 0.161 0 -0.000701677 -0.000701677 -1.07945e-06 7.01677 511.844 747.697 
962 0.6294 0.6294 0 0.000868653 0.000868653 4.8187e-06 28.171 4372.18 5685.36 
1042 0.91 0.91 0 0.000674036 0.000674036 -6.73318e-07 40.0993 4921.27 6797.49 
1122 0.8658 0.8658 0 0.000746647 0.000746647 3.12614e-05 38.3902 5482.41 7567.89 
1202 0.7124 0.7124 0 0.000827732 0.000827732 2.86687e-05 31.6124 4898.57 6599.53 
3 0.0796 0.0796 0 0.000224347 0.000224347 -1.6859e-05 32.3023 6247.67 8895.54 
83 10.2734 10.2734 0 0.042692 0.042692 -0.000141665 426.92 27418.5 38176.9 
163 10.7394 10.7394 0 0.0443496 0.0443496 -5.46686e-05 443.496 25673.3 35879.3 
243 10.1968 10.1968 0 0.0422007 0.0422007 -4.18626e-05 422.007 27393.3 37973.7 
323 0.192 0.192 0 0.000782328 0.000782328 2.44107e-05 83.4468 13098 18983.4 
403 0.7606 0.7606 0 0.000754372 0.000754372 4.97122e-05 33.8871 5134.87 6879.35 
483 0.876 0.876 0 0.000728518 0.000728518 -2.73349e-05 38.879 5362.58 7207.95 
563 0.8896 0.8896 0 0.000660702 0.000660702 -1.95351e-05 39.0581 4411.83 6179.06 
643 0.0048 0.0048 0 -1.68053e-05 -1.68053e-05 -6.34575e-07 1.8277 88.6856 248.043 
723 0.18 0.18 0 -0.000760347 -0.000760347 5.16679e-06 7.60347 518.5 754.148 
803 0.2232 0.2232 0 -0.000969694 -0.000969694 2.62756e-06 9.69694 906.23 1225.81 
883 0.1668 0.1668 0 -0.000689243 -0.000689243 4.71753e-06 6.89243 631.88 922.022 
963 0.685 0.685 0 0.000931176 0.000931176 -5.05013e-05 31.0102 4752.36 6134.78 
1043 0.9012 0.9012 0 0.000591161 0.000591161 -1.38093e-05 40.1564 4672.12 6505.41 
1123 0.8634 0.8634 0 0.000681827 0.000681827 -7.00892e-07 37.9922 5333.29 7190.81 
1203 0.7002 0.7002 0 0.00087467 0.00087467 -3.38595e-05 31.1334 5398.13 7101.45 
4 0.094 0.094 0 0.000286534 0.000286534 -1.40348e-06 38.3047 5810.79 8631.68 
84 10.1506 10.1506 0 0.0422796 0.0422796 -7.87013e-05 422.796 27148.8 37499.2 
164 10.6518 10.6518 0 0.0438313 0.0438313 0.000174357 438.313 24815.4 34610.4 
244 10.3248 10.3248 0 0.0428243 0.0428243 1.74997e-05 428.243 26563 36586.7 
324 0.1534 0.1534 0 0.000579138 0.000579138 -1.40525e-05 63.8686 11047.4 16152.6 
404 0.7802 0.7802 0 0.0007978 0.0007978 -1.86932e-05 34.7466 5462.08 7156.16 
484 0.8894 0.8894 0 0.000648497 0.000648497 3.30581e-05 39.1136 5074.35 7005.47 
564 0.9054 0.9054 0 0.000721126 0.000721126 8.96632e-06 40.0297 4952.61 6819.93 
644 0.0034 0.0034 0 -1.0688e-05 -1.0688e-05 -1.2673e-06 1.07139 53.1598 166.729 
724 0.1842 0.1842 0 -0.000761835 -0.000761835 1.00929e-05 7.61835 670.141 916.634 
804 0.2078 0.2078 0 -0.000906543 -0.000906543 -3.28008e-05 9.06543 795.392 1055.07 
884 0.1518 0.1518 0 -0.000639151 -0.000639151 -2.95407e-05 6.39151 555.233 797.955 
964 0.6718 0.6718 0 0.000852026 0.000852026 -2.9141e-06 29.8402 4542 6068.41 
1044 0.896 0.896 0 0.000644159 0.000644159 -7.3196e-06 39.4626 4583.48 6297.14 
1124 0.8884 0.8884 0 0.000719954 0.000719954 -7.04043e-06 39.3722 5428.95 7483.92 
1204 0.721 0.721 0 0.000804037 0.000804037 1.19e-05 31.9529 5138.45 6874.09 
5 0.1116 0.1116 0 0.00037056 0.00037056 -2.07883e-06 45.7333 8790.91 12101.8 
85 10.1984 10.1984 0 0.0424969 0.0424969 -2.42429e-05 424.969 27112.6 37920.4 
165 10.7366 10.7366 0 0.0444433 0.0444433 6.10114e-06 444.433 26358.6 36202.9 
245 10.2746 10.2746 0 0.0426424 0.0426424 0.000107035 426.424 26703.3 37282 
325 0.123 0.123 0 0.000436496 0.000436496 -1.3217e-08 51.4829 9084.24 12159.5 
405 0.7654 0.7654 0 0.000792181 0.000792181 3.39528e-05 34.0182 5076.66 6930.38 
485 0.8784 0.8784 0 0.00066106 0.00066106 3.3284e-05 38.9369 4750.47 6403.61 
565 0.878 0.878 0 0.000564761 0.000564761 5.50264e-05 38.6096 4372.34 6093.82 
645 0.0528 0.0528 0 -0.000188879 -0.000188879 -3.22336e-06 1.88879 169.717 251.345 
725 0.175 0.175 0 -0.000735709 -0.000735709 -1.06384e-05 7.35709 512.682 794.515 
805 0.2158 0.2158 0 -0.000922951 -0.000922951 1.32534e-05 9.22951 631.84 1005.25 
885 0.1494 0.1494 0 -0.000613375 -0.000613375 -1.3995e-05 6.13375 647.464 841.987 
965 0.6916 0.6916 0 0.000823745 0.000823745 1.23108e-05 30.591 4278.95 5639.5 
1045 0.901 0.901 0 0.000624314 0.000624314 -2.30772e-05 39.9904 5160.83 6875.96 
1125 0.8662 0.8662 0 0.000687239 0.000687239 -2.46888e-05 38.2562 5105.38 6976.88 
1205 0.702 0.702 0 0.000797166 0.000797166 1.12536e-05 31.2633 5134.26 6956.56 
6 0.1242 0.1242 0 0.000429288 0.000429288 -1.36077e-05 50.5179 7756.08 11139.4 
86 10.2042 10.2042 0 0.0425467 0.0425467 0.00013161 425.467 26831.4 36568.3 
166 10.6734 10.6734 0 0.0440206 0.0440206 4.52678e-05 440.206 26448.6 36211.8 
246 10.1702 10.1702 0 0.0422567 0.0422567 -0.000100578 422.567 26786.8 37430.7 
326 0.1052 0.1052 0 0.000344666 0.000344666 3.7611e-06 43.0863 7191.6 10642.2 
406 0.7592 0.7592 0 0.000708534 0.000708534 -3.74279e-06 33.6316 4834.57 6523.36 
486 0.8914 0.8914 0 0.000674646 0.000674646 2.06778e-05 39.0992 5251.69 7187.91 
566 0.8886 0.8886 0 0.000629868 0.000629868 -3.55742e-05 39.0647 4823.85 6669.92 
646 0.0558 0.0558 0 -0.000195958 -0.000195958 -3.08916e-06 1.95958 157.427 296.202 
726 0.1826 0.1826 0 -0.000783419 -0.000783419 1.37437e-05 7.83419 659.75 882.944 
806 0.2086 0.2086 0 -0.000891701 -0.000891701 7.11137e-06 8.91701 794.255 1052.05 
886 0.149 0.149 0 -0.000619998 -0.000619998 6.31411e-06 6.19998 503.141 689.914 
966 0.7112 0.7112 0 0.0008145 0.0008145 -3.84922e-05 31.6426 4312.38 5719.33 
1046 0.917 0.917 0 0.000653274 0.000653274 3.81386e-05 40.3097 5121.22 7143.09 
1126 0.8562 0.8562 0 0.000737595 0.000737595 -1.31866e-05 37.7088 5259.44 7047.76 
1206 0.6964 0.6964 0 0.000798815 0.000798815 4.00667e-05 31.3289 5153.99 6737.36 
7 0.157 0.157 0 0.000602891 0.000602891 9.07889e-07 66.2715 10829 15223.3 
87 10.3398 10.3398 0 0.042864 0.042864 9.71136e-05 428.64 27324.4 37755.3 
167 10.6598 10.6598 0 0.0439406 0.0439406 2.86813e-06 439.406 24952.5 34833.9 
247 10.1998 10.1998 0 0.042239 0.042239 3.65564e-05 422.39 26935.5 36914.3 
327 0.0938 0.0938 0 0.000283479 0.000283479 -5.44273e-06 39.1545 6829.3 10308.7 
407 0.7826 0.7826 0 0.000739253 0.000739253 -2.27055e-05 35.3176 5336.94 7279.77 
487 0.8856 0.8856 0 0.000643483 0.000643483 -4.03043e-05 39.0775 5055.66 6967.3 
567 0.9062 0.9062 0 0.000616736 0.000616736 -4.15827e-05 39.6223 5026.25 6746.74 
647 0.0596 0.0596 0 -0.00020719 -0.00020719 -2.07671e-06 2.0719 170.108 284.064 
727 0.1882 0.1882 0 -0.000787112 -0.000787112 -3.74396e-06 7.87112 567.616 915.954 
807 0.2108 0.2108 0 -0.000904343 -0.000904343 2.55509e-05 9.04343 560.689 822.454 
887 0.154 0.154 0 -0.000637043 -0.000637043 4.46408e-06 6.37043 430.727 661.114 
967 0.7106 0.7106 0 0.000786418 0.000786418 3.62819e-05 31.3187 4292.91 5650.37 
1047 0.9004 0.9004 0 0.000700144 0.000700144 2.5661e-05 39.2207 4695.91 6340.56 
1127 0.8592 0.8592 0 0.000613528 0.000613528 3.07817e-05 38.0084 4869.96 6749.13 
1207 0.71 0.71 0 0.000827915 0.000827915 1.32362e-06 31.4284 5471.07 7284.07 
8 0.1954 0.1954 0 0.00080159 0.00080159 -1.50599e-05 83.8659 14710.5 21621.9 
88 10.3146 10.3146 0 0.0428139 0.0428139 -7.26749e-05 428.139 26316.3 36667.5 
168 10.6914 10.6914 0 0.0439819 0.0439819 -5.26477e-05 439.819 25613.2 35403 
248 10.2544 10.2544 0 0.0425383 0.0425383 6.7244e-05 425.383 26694 36902.3 
328 0.0796 0.0796 0 0.000212446 0.000212446 -2.02461e-06 33.2497 4570.13 7290.24 
408 0.7878 0.7878 0 0.00078994 0.00078994 4.37791e-05 34.8155 5508.65 7591.96 
488 0.906 0.906 0 0.000638811 0.000638811 -2.75448e-05 39.4177 5123.46 7050.36 
568 0.909 0.909 0 0.000591123 0.000591123 4.07204e-05 39.5286 4601.34 6287.11 
648 0.0572 0.0572 0 -0.000208275 -0.000208275 3.16399e-06 2.08275 90.7673 265.291 
728 0.183 0.183 0 -0.000792468 -0.000792468 2.19447e-06 7.92468 595.33 1008.34 
808 0.2026 0.2026 0 -0.000892392 -0.000892392 -1.43817e-05 8.92392 737.697 1057.45 
888 0.147 0.147 0 -0.000630999 -0.000630999 2.56443e-06 6.30999 521.886 768.301 
968 0.7076 0.7076 0 0.000770879 0.000770879 -6.50308e-05 31.03 4151.9 5418.41 
1048 0.9014 0.9014 0 0.000639348 0.000639348 -1.85523e-05 39.3259 4737.58 6596.02 
1128 0.8868 0.8868 0 0.000732951 0.000732951 6.02162e-05 39.2663 5251.64 7188.66 
1208 0.6808 0.6808 0 0.000755519 0.000755519 3.21043e-05 30.0012 5138.89 6715.66 
9 0.2256 0.2256 0 0.000971104 0.000971104 2.31311e-05 99.096 17881.7 24211.4 
89 10.269 10.269 0 0.0425993 0.0425993 -5.80909e-05 425.993 26413.1 36560.8 
169 10.6454 10.6454 0 0.0438876 0.0438876 8.02052e-05 438.876 24869.9 34366.6 
249 10.2462 10.2462 0 0.0426197 0.0426197 2.20422e-05 426.197 27078.4 37980.1 
329 0.0658 0.0658 0 0.000156069 0.000156069 1.65698e-05 25.3518 4124.33 6080.96 
409 0.7728 0.7728 0 0.000736386 0.000736386 -1.80034e-05 34.5421 5197.97 7022.37 
489 0.883 0.883 0 0.000664559 0.000664559 -1.95218e-05 38.4384 5007.23 6926.08 
569 0.8992 0.8992 0 0.000669699 0.000669699 2.19264e-05 39.2688 4861.5 6582.35 
649 0.0642 0.0642 0 -0.000238224 -0.000238224 1.16409e-05 2.38224 142.73 268.395 
729 0.1708 0.1708 0 -0.000721886 -0.000721886 -2.82688e-06 7.21886 656.422 913.136 
809 0.2076 0.2076 0 -0.000898714 -0.000898714 9.87942e-06 8.98714 858.216 1183.91 
889 0.1452 0.1452 0 -0.000595291 -0.000595291 7.42197e-06 5.95291 375.959 626.587 
969 0.7238 0.7238 0 0.000775961 0.000775961 3.85809e-05 32.0482 4221.6 5656.43 
1049 0.9096 0.9096 0 0.000638958 0.000638958 2.2082e-05 39.8726 4786.25 6517.42 
1129 0.8338 0.8338 0 0.000672886 0.000672886 -4.30958e-06 37.1922 5243.03 7133.78 
1209 0.6914 0.6914 0 0.000794298 0.000794298 4.59663e-06 30.4445 4927.92 6433.03 
10 0.2574 0.2574 0 0.00112568 0.00112568 -1.01273e-05 111.776 19971.3 27670.5 
90 10.3584 10.3584 0 0.0431343 0.0431343 7.9508e-05 431.343 27705 37749.2 
170 10.754 10.754 0 0.0444374 0.0444374 -3.04166e-05 444.374 25657 36153.2 
250 10.1534 10.1534 0 0.042288 0.042288 4.67674e-05 422.88 26985.6 37573.9 
330 0.053 0.053 0 0.000108218 0.000108218 2.02777e-06 20.4989 3724.06 5912.04 
410 0.7612 0.7612 0 0.000744632 0.000744632 2.18065e-05 34.0467 4989.59 6715.21 
490 0.8822 0.8822 0 0.000603972 0.000603972 -2.22074e-05 39.4454 4885.29 6657.42 
570 0.8676 0.8676 0 0.000653942 0.000653942 -4.02701e-05 37.7736 4473.59 6214.43 
650 0.071 0.071 0 -0.00026099 -0.00026099 1.54128e-06 2.6099 178.568 322.277 
730 0.198 0.198 0 -0.000824968 -0.000824968 1.0826e-05 8.24968 702.195 983.864 
810 0.209 0.209 0 -0.000908955 -0.000908955 1.82096e-05 9.08955 801.589 1107.43 
890 0.1376 0.1376 0 -0.000571502 -0.000571502 2.32472e-05 5.71502 476.687 682.156 
970 0.7578 0.7578 0 0.000773619 0.000773619 -8.89646e-06 33.2792 4437.21 5983.73 
1050 0.899 0.899 0 0.000622239 0.000622239 3.02405e-05 39.1913 4885.06 6477.4 
1130 0.8438 0.8438 0 0.000697485 0.000697485 -6.8236e-05 37.715 5239.37 7196.29 
1210 0.6918 0.6918 0 0.000835315 0.000835315 -1.45815e-05 30.874 5336.44 6921.2 
11 0.3074 0.3074 0 0.00137862 0.00137862 3.21436e-06 136.304 21473.2 30141.5 
91 10.3364 10.3364 0 0.0428456 0.0428456 -5.26048e-05 428.456 26447 36678.6 
171 10.7268 10.7268 0 0.0441313 0.0441313 5.68776e-05 441.313 25711 35858 
251 10.2034 10.2034 0 0.0423374 0.0423374 2.83625e-05 423.374 27148.5 37563.3 
331 0.4526 0.4526 0 0.000802903 0.000802903 6.95052e-06 17.2894 2701.88 4052.96 
411 0.786 0.786 0 0.000734561 0.000734561 -2.73846e-05 34.7716 5394.04 6969.75 
491 0.892 0.892 0 0.000700811 0.000700811 -5.3666e-06 39.3324 4911.56 6698.53 
571 0.889 0.889 0 0.000641826 0.000641826 3.98674e-05 38.6375 4612.87 6382.15 
651 0.062 0.062 0 -0.000220722 -0.000220722 -8.0175e-06 2.20722 132.17 209.39 
731 0.1724 0.1724 0 -0.000729985 -0.000729985 2.22852e-05 7.29985 473.398 691.671 
811 0.2054 0.2054 0 -0.00087668 -0.00087668 -9.26984e-06 8.7668 716.106 1081.73 
891 0.1386 0.1386 0 -0.000566091 -0.000566091 5.43924e-06 5.66091 384.17 614.558 
971 0.7518 0.7518 0 0.000811625 0.000811625 5.7065e-05 32.8206 4506.94 6173.76 
1051 0.9052 0.9052 0 0.000657822 0.000657822 -4.07122e-05 39.3515 4973.89 6649.12 
1131 0.8654 0.8654 0 0.000709498 0.000709498 -1.98815e-05 38.3494 5300.21 7204.05 
1211 0.6832 0.6832 0 0.000838689 0.000838689 5.02028e-05 30.0232 5115.74 6936.9 
12 0.3574 0.3574 0 0.00165161 0.00165161 2.04098e-05 159.584 26860.8 36172.2 
92 10.215 10.215 0 0.0424991 0.0424991 -0.000128177 424.991 25880.2 36393.2 
172 10.7398 10.7398 0 0.0442241 0.0442241 1.35754e-05 442.241 25229.6 35065 
252 10.2254 10.2254 0 0.0423504 0.0423504 1.46466e-05 423.504 26894.2 37667.6 
332 0.4784 0.4784 0 0.000818364 0.000818364 9.93e-06 18.5987 3124.44 4543.15 
412 0.7596 0.7596 0 0.000759709 0.000759709 4.13443e-05 33.5659 5302.13 6934.39 
492 0.8854 0.8854 0 0.000643916 0.000643916 3.92455e-06 38.6742 4910.78 6897.16 
572 0.9054 0.9054 0 0.000662936 0.000662936 -2.91437e-05 39.4229 4511.41 6069.5 
652 0.0742 0.0742 0 -0.000265969 -0.000265969 -5.09925e-06 2.65969 157.473 319.411 
732 0.179 0.179 0 -0.000746678 -0.000746678 8.36205e-06 7.46678 621.177 926.521 
812 0.2234 0.2234 0 -0.000962193 -0.000962193 4.75214e-06 9.62193 766.739 1105.67 
892 0.1434 0.1434 0 -0.00058955 -0.00058955 -2.80988e-06 5.8955 380.057 572.288 
972 0.7502 0.7502 0 0.000751783 0.000751783 -2.10397e-05 32.8065 4227.59 5646.47 
1052 0.909 0.909 0 0.000634211 0.000634211 1.98724e-05 39.8983 4678.81 6749.06 
1132 0.8448 0.8448 0 0.000688955 0.000688955 8.632e-07 37.4377 5235.14 7219.44 
1212 0.697 0.697 0 0.000838867 0.000838867 8.49164e-06 30.7691 5140.55 6892.54 
13 0.4068 0.4068 0 0.0018934 0.0018934 -1.37082e-05 185.394 30265.3 41296.8 
93 10.4152 10.4152 0 0.0431955 0.0431955 6.21319e-05 431.955 27550.8 37966.4 
173 10.7112 10.7112 0 0.0440858 0.0440858 -2.71509e-05 440.858 24859.8 34350.7 
253 10.188 10.188 0 0.0422857 0.0422857 9.24385e-05 422.857 27877.5 38949.5 
333 0.4962 0.4962 0 0.000877654 0.000877654 -2.49099e-05 19.6645 3130.04 4621.52 
413 0.7804 0.7804 0 0.000731867 0.000731867 -1.39933e-05 34.8667 5294.01 6914.37 
493 0.896 0.896 0 0.000632499 0.000632499 3.04591e-05 39.4544 5223.4 7005.51 
573 0.87 0.87 0 0.000636309 0.000636309 -5.45181e-07 38.2451 4469.81 6005.07 
653 0.0588 0.0588 0 -0.000216792 -0.000216792 -5.91573e-06 2.16792 135.431 271.868 
733 0.1866 0.1866 0 -0.000810473 -0.000810473 -3.92178e-06 8.10473 620.798 938.379 
813 0.2252 0.2252 0 -0.000970206 -0.000970206 -2.24839e-05 9.70206 714.621 1020.42 
893 0.1348 0.1348 0 -0.000567135 -0.000567135 7.02432e-06 5.67135 490.249 706.02 
973 0.7826 0.7826 0 0.000798412 0.000798412 -8.44767e-05 34.5841 4667.48 6268.83 
1053 0.9012 0.9012 0 0.000628066 0.000628066 -3.44174e-05 39.629 4752.53 6630.66 
1133 0.8616 0.8616 0 0.000735889 0.000735889 -9.85111e-06 38.7524 5417.71 7285.29 
1213 0.6866 0.6866 0 0.0008223 0.0008223 -2.34333e-05 29.9651 5046.07 6609.5 
14 0.467 0.467 0 0.00221164 0.00221164 2.18076e-05 216.293 37144 49166.9 
94 10.2676 10.2676 0 0.042709 0.042709 0.000119209 427.09 26264.5 36665.2 
174 10.7006 10.7006 0 0.0442076 0.0442076 6.02401e-05 442.076 25639.8 35177.9 
254 10.1536 10.1536 0 0.0421239 0.0421239 0.000174121 421.239 26816.2 37381.8 
334 0.4882 0.4882 0 0.000846326 0.000846326 -2.30792e-06 19.3175 3659.18 5208.71 
414 0.7798 0.7798 0 0.000773909 0.000773909 4.73797e-05 34.63 5054.07 6840.62 
494 0.878 0.878 0 0.000640029 0.000640029 4.40997e-05 38.4381 5063.75 6981.78 
574 0.889 0.889 0 0.000645438 0.000645438 2.63503e-06 38.7272 4509.89 6197.15 
654 0.0686 0.0686 0 -0.000256047 -0.000256047 1.41054e-05 2.56047 143.893 255.643 
734 0.183 0.183 0 -0.000785544 -0.000785544 -1.77565e-06 7.85544 680.644 982.316 
814 0.2006 0.2006 0 -0.000848969 -0.000848969 5.7306e-06 8.48969 748.688 1019.29 
894 0.1508 0.1508 0 -0.000616738 -0.000616738 3.76866e-06 6.16738 444.096 697.75 
974 0.7488 0.7488 0 0.000722394 0.000722394 -1.15617e-05 32.7292 4145.58 5599.95 
1054 0.9034 0.9034 0 0.000601184 0.000601184 -7.55503e-06 39.6418 4840.39 6823.13 
1134 0.8438 0.8438 0 0.000668772 0.000668772 -5.76986e-06 37.3139 5289.95 7357.47 
1214 0.6864 0.6864 0 0.000872113 0.000872113 -8.53131e-06 30.5685 5109.29 6980.63 
15 0.5066 0.5066 0 0.00237956 0.00237956 5.61054e-06 235.89 36701.5 49505.4 
95 10.4272 10.4272 0 0.0431306 0.0431306 7.41953e-05 431.306 27502.7 37921.3 
175 10.739 10.739 0 0.0442915 0.0442915 -0.000104334 442.915 25685.3 35724.7 
255 10.1366 10.1366 0 0.0421644 0.0421644 -0.000116735 421.644 26883 37388.2 
335 0.507 0.507 0 0.000867089 0.000867089 1.11568e-05 20.0578 3537.1 5053.81 
415 0.7866 0.7866 0 0.000730635 0.000730635 9.52924e-06 35.2072 5443.14 7365.85 
495 0.89 0.89 0 0.000647527 0.000647527 -9.21183e-07 39.1119 4703.12 6477.89 
575 0.9 0.9 0 0.000692796 0.000692796 -1.54119e-05 39.4085 4776.71 6354.88 
655 0.0686 0.0686 0 -0.000267182 -0.000267182 -1.82339e-05 2.67182 136.662 210.509 
735 0.1866 0.1866 0 -0.0007975 -0.0007975 6.64961e-06 7.975 566.761 849.178 
815 0.2072 0.2072 0 -0.000887601 -0.000887601 3.25749e-06 8.87601 666.224 1013.66 
895 0.1322 0.1322 0 -0.000544577 -0.000544577 -1.32511e-05 5.44577 460.067 766.875 
975 0.7712 0.7712 0 0.000774934 0.000774934 1.8019e-05 34.0232 4594.27 6210.36 
1055 0.9198 0.9198 0 0.000643274 0.000643274 5.7016e-05 41.1548 4769.63 6519.12 
1135 0.8474 0.8474 0 0.000756225 0.000756225 1.13165e-05 37.8591 5185.99 6833.01 
1215 0.6704 0.6704 0 0.000779313 0.000779313 -4.08964e-06 29.7233 4988.4 6655.83 
16 0.5552 0.5552 0 0.00263808 0.00263808 1.36757e-05 265.855 40816.1 56032.4 
96 10.3488 10.3488 0 0.0428605 0.0428605 3.21299e-05 428.605 26193 36496.4 
176 10.6976 10.6976 0 0.044152 0.044152 -7.30288e-05 441.52 25146.3 34893.1 
256 10.0926 10.0926 0 0.041947 0.041947 2.0167e-05 419.47 28277.8 38897.4 
336 0.5238 0.5238 0 0.000859745 0.000859745 -1.61935e-06 20.8313 3510.38 5071.71 
416 0.7804 0.7804 0 0.000744698 0.000744698 -1.00519e-05 34.594 5157.3 6934.83 
496 0.8984 0.8984 0 0.000711412 0.000711412 -2.61976e-05 39.4855 5044.09 6888.75 
576 0.8908 0.8908 0 0.000646021 0.000646021 -1.07029e-05 39.0243 4455.77 6222.46 
656 0.0742 0.0742 0 -0.000277608 -0.000277608 2.88703e-06 2.77608 198.416 339.531 
736 0.2004 0.2004 0 -0.000851508 -0.000851508 -1.84006e-05 8.51508 721.398 1125.75 
816 0.205 0.205 0 -0.000870842 -0.000870842 -3.49081e-06 8.70842 815.664 1155.34 
896 0.1366 0.1366 0 -0.000557175 -0.000557175 -7.1607e-06 5.57175 505.46 741.638 
976 0.7742 0.7742 0 0.000736418 0.000736418 -8.91634e-06 33.683 4445.01 5910.56 
1056 0.9088 0.9088 0 0.000625419 0.000625419 1.01688e-05 39.6807 4889.61 6690.46 
1136 0.8486 0.8486 0 0.000728673 0.000728673 -4.11638e-05 37.6505 5278.62 7164.07 
1216 0.6568 0.6568 0 0.000778205 0.000778205 3.92924e-05 28.7124 4486.58 6167.93 
17 6.0394 6.0394 0 0.0275234 0.0275234 4.44783e-06 275.234 40270 53881.7 
97 10.49 10.49 0 0.0435547 0.0435547 0.000178467 435.547 27488.6 37652.5 
177 10.7014 10.7014 0 0.0441148 0.0441148 -2.85019e-05 441.148 24834.6 35186.6 
257 10.1246 10.1246 0 0.0421713 0.0421713 9.36146e-07 421.713 27731.4 38361.6 
337 0.5152 0.5152 0 0.000844805 0.000844805 5.80353e-06 20.9775 3639.23 5196.78 
417 0.7852 0.7852 0 0.000729291 0.000729291 1.12729e-05 34.6441 5038.43 6970.47 
497 0.8708 0.8708 0 0.000696293 0.000696293 3.20594e-05 38.6756 5105.17 6989.4 
577 0.8816 0.8816 0 0.000633818 0.000633818 4.07869e-05 38.5108 4595.97 6284.02 
657 0.0796 0.0796 0 -0.000303428 -0.000303428 -2.46827e-06 3.03428 255.93 424.479 
737 0.1902 0.1902 0 -0.000830268 -0.000830268 -2.75718e-05 8.30268 700.667 964.905 
817 0.2122 0.2122 0 -0.000926554 -0.000926554 1.24282e-05 9.26554 749.065 1068.52 
897 0.1438 0.1438 0 -0.000593814 -0.000593814 -5.53737e-06 5.93814 361.602 606.665 
977 0.7836 0.7836 0 0.000714151 0.000714151 3.39614e-05 34.5135 4221.91 5746.01 
1057 0.9058 0.9058 0 0.000650159 0.000650159 1.00282e-05 39.8768 4750.15 6367.69 
1137 0.8408 0.8408 0 0.000672108 0.000672108 7.31237e-06 37.7483 5025.23 6834.08 
1217 0.6612 0.6612 0 0.000832374 0.000832374 7.64027e-06 29.4408 5313.54 7013.56 
18 6.3946 6.3946 0 0.0286121 0.0286121 0.000110337 286.121 36737.3 49663.6 
98 10.3274 10.3274 0 0.0428297 0.0428297 -5.04008e-05 428.297 25805 35987.8 
178 10.7004 10.7004 0 0.0442311 0.0442311 2.95206e-05 442.311 25323.1 35256 
258 10.0846 10.0846 0 0.0420083 0.0420083 -3.70006e-05 420.083 27396.9 37738.3 
338 0.5398 0.5398 0 0.000912213 0.000912213 3.22915e-05 22.0983 3772.13 5355.58 
418 0.7956 0.7956 0 0.000715328 0.000715328 2.37937e-06 35.4907 5064.71 6970.76 
498 0.898 0.898 0 0.000689975 0.000689975 -1.76444e-05 39.7847 5006.81 6856.14 
578 0.892 0.892 0 0.000600345 0.000600345 5.78261e-05 39.3386 4664.97 6593.28 
658 0.0776 0.0776 0 -0.000298137 -0.000298137 -3.54416e-06 2.98137 279.785 416.04 
738 0.189 0.189 0 -0.000804051 -0.000804051 -1.50358e-05 8.04051 658.928 958.88 
818 0.2164 0.2164 0 -0.000915965 -0.000915965 -2.49142e-06 9.15965 734.61 1120.69 
898 0.1296 0.1296 0 -0.000532187 -0.000532187 -4.20287e-06 5.32187 470.993 746.152 
978 0.8048 0.8048 0 0.000696634 0.000696634 5.69652e-05 35.5808 4542.9 6139.5 
1058 0.9128 0.9128 0 0.000680787 0.000680787 5.30962e-05 40.0678 5020.88 6717.89 
1138 0.8388 0.8388 0 0.000707056 0.000707056 -1.28442e-05 37.3233 5061.01 6907.86 
1218 0.6796 0.6796 0 0.000832065 0.000832065 2.60992e-05 29.7609 5097.2 6729.3 
19 6.775 6.775 0 0.0298499 0.0298499 -3.2659e-05 298.499 36030.7 49322.7 
99 10.5286 10.5286 0 0.0436892 0.0436892 5.50871e-05 436.892 28372 38668 
179 10.626 10.626 0 0.0439175 0.0439175 0.000163194 439.175 25189.9 34349.3 
259 9.9798 9.9798 0 0.0416909 0.0416909 3.71351e-05 416.909 27529.3 38216.9 
339 0.5476 0.5476 0 0.000930103 0.000930103 4.07317e-05 22.4211 3983.79 5496.73 
419 0.7926 0.7926 0 0.000751399 0.000751399 1.62021e-06 35.4625 5324.09 7313.62 
499 0.907 0.907 0 0.000688349 0.000688349 1.97732e-05 40.0692 4870.02 6710.17 
579 0.8974 0.8974 0 0.000717299 0.000717299 1.18714e-05 38.8953 4610.67 6404.83 
659 0.076 0.076 0 -0.000300777 -0.000300777 9.70338e-06 3.00777 241.823 394.888 
739 0.194 0.194 0 -0.000813417 -0.000813417 5.53528e-06 8.13417 653.868 958.863 
819 0.2256 0.2256 0 -0.000944761 -0.000944761 -8.45386e-06 9.44761 594.576 932.078 
899 0.1258 0.1258 0 -0.000521103 -0.000521103 -5.31124e-06 5.21103 466.465 666.577 
979 0.8074 0.8074 0 0.000700886 0.000700886 -9.98868e-06 34.9407 4571.58 6270 
1059 0.918 0.918 0 0.000653665 0.000653665 5.68639e-05 41.0036 5199.52 6897.46 
1139 0.8462 0.8462 0 0.000722464 0.000722464 1.96935e-05 37.3621 5250.29 7233.75 
1219 0.6468 0.6468 0 0.000813355 0.000813355 -3.33661e-05 28.4256 4881.87 6495.09 
20 7.0874 7.0874 0 0.0311039 0.0311039 3.47757e-05 311.039 35413.2 48359.4 
100 10.4762 10.4762 0 0.0434496 0.0434496 -0.000144782 434.496 27171.9 36991.8 
180 10.7918 10.7918 0 0.0445355 0.0445355 0.000108252 445.355 25976.4 35816.9 
260 10.0474 10.0474 0 0.0418869 0.0418869 -2.94093e-05 418.869 27188 37337.4 
340 0.5302 0.5302 0 0.000817679 0.000817679 6.06013e-06 21.916 3611.34 5107.84 
420 0.8064 0.8064 0 0.000701404 0.000701404 1.56856e-05 35.8476 4768.66 6587.49 
500 0.8956 0.8956 0 0.000659594 0.000659594 -8.80403e-05 39.2174 4968.11 6559.76 
580 0.8782 0.8782 0 0.000634984 0.000634984 9.19134e-07 38.5303 4583.7 6176.79 
660 0.0798 0.0798 0 -0.000300217 -0.000300217 4.18575e-06 3.00217 178.54 332.327 
740 0.2132 0.2132 0 -0.000904329 -0.000904329 -1.21089e-06 9.04329 567.329 827.104 
820 0.2174 0.2174 0 -0.000922661 -0.000922661 -1.13817e-05 9.22661 627.524 867.617 
900 0.1266 0.1266 0 -0.000513639 -0.000513639 2.18865e-06 5.13639 382.15 536.795 
980 0.8134 0.8134 0 0.000696577 0.000696577 -1.97697e-05 35.7567 4152.46 5834.79 
1060 0.9078 0.9078 0 0.000631849 0.000631849 2.73924e-05 39.9443 4955.84 6735.93 
1140 0.841 0.841 0 0.00071647 0.00071647 -4.94964e-06 37.4593 5349.96 7321.69 
1220 0.6448 0.6448 0 0.000821009 0.000821009 9.98797e-06 28.3755 4939.78 6511.4 
21 7.244 7.244 0 0.0317605 0.0317605 -6.38563e-05 317.605 35087.3 47870.2 
101 10.4566 10.4566 0 0.0433425 0.0433425 -0.00013726 433.425 26541.5 37055.7 
181 10.6274 10.6274 0 0.0438701 0.0438701 -0.000120065 438.701 25467.9 35417.5 
261 9.9434 9.9434 0 0.0414544 0.0414544 -8.79634e-05 414.544 27842.2 38409.9 
341 0.5364 0.5364 0 0.00089532 0.00089532 9.46499e-06 22.3066 4095.05 5613.37 
421 0.8004 0.8004 0 0.000749275 0.000749275 -1.99672e-05 35.4657 5198.72 7012.51 
501 0.92 0.92 0 0.000740205 0.000740205 -1.84e-05 40.3365 5181.38 7124.76 
581 0.9038 0.9038 0 0.00063802 0.00063802 -1.84002e-05 39.5353 4577.04 6181.07 
661 0.0776 0.0776 0 -0.000302432 -0.000302432 2.59055e-06 3.02432 214.215 331.675 
741 0.2044 0.2044 0 -0.000879711 -0.000879711 -2.48086e-06 8.79711 664.859 1031.03 
821 0.2098 0.2098 0 -0.000916864 -0.000916864 -2.21637e-06 9.16864 846.454 1138.53 
901 0.1242 0.1242 0 -0.000514697 -0.000514697 1.67896e-05 5.14697 454.954 745.958 
981 0.8228 0.8228 0 0.000728908 0.000728908 2.55285e-05 36.1749 4607.46 6204.08 
1061 0.9198 0.9198 0 0.000640696 0.000640696 -3.22681e-05 40.447 4907.37 6720.24 
1141 0.8108 0.8108 0 0.000697842 0.000697842 -6.42902e-06 35.7456 4847.85 6715.44 
1221 0.6556 0.6556 0 0.000849502 0.000849502 -2.56271e-05 29.2394 4845.13 6500.1 
22 7.4928 7.4928 0 0.0327679 0.0327679 -0.000163284 327.679 34017.5 46760.4 
102 10.4684 10.4684 0 0.0433431 0.0433431 -0.000103717 433.431 26008.5 35657.3 
182 10.6456 10.6456 0 0.0440091 0.0440091 3.90163e-05 440.091 25036.5 34927.8 
262 10.0118 10.0118 0 0.0418131 0.0418131 2.34193e-05 418.131 27694.6 38320 
342 0.5504 0.5504 0 0.000884299 0.000884299 -5.18044e-05 22.811 4029.76 5519.34 
422 0.8238 0.8238 0 0.000796735 0.000796735 -3.31732e-05 35.8513 5076.36 7094.3 
502 0.8912 0.8912 0 0.000642018 0.000642018 2.81272e-05 39.1128 4705.53 6720.77 
582 0.8712 0.8712 0 0.000709832 0.000709832 1.88606e-05 38.4978 4634.3 6474.21 
662 0.0872 0.0872 0 -0.000351033 -0.000351033 -1.09116e-05 3.51033 299.066 465.162 
742 0.192 0.192 0 -0.00081955 -0.00081955 -1.76393e-05 8.1955 620.885 930.54 
822 0.2054 0.2054 0 -0.000887319 -0.000887319 8.52093e-07 8.87319 616.303 926.551 
902 0.138 0.138 0 -0.000569017 -0.000569017 1.41185e-05 5.69017 445.396 755.016 
982 0.7812 0.7812 0 0.000680915 0.000680915 -3.17529e-05 34.9243 4148.54 5571.44 
1062 0.9238 0.9238 0 0.000614985 0.000614985 -3.13629e-05 40.3882 5098.61 6993.58 
1142 0.8206 0.8206 0 0.000695701 0.000695701 2.24653e-05 36.5188 4974.58 6796.05 
1222 0.6518 0.6518 0 0.000860148 0.000860148 -2.60806e-05 28.6744 4832.4 6513.62 
23 7.586 7.586 0 0.032956 0.032956 -0.000144099 329.56 34030.2 46473.8 
103 10.4262 10.4262 0 0.0432856 0.0432856 0.000116922 432.856 26936.3 36922.9 
183 10.756 10.756 0 0.0441472 0.0441472 0.000111759 441.472 25607.6 35461.7 
263 9.9176 9.9176 0 0.0415398 0.0415398 0.00013455 415.398 27937.8 38758 
343 0.5536 0.5536 0 0.000883444 0.000883444 3.88866e-05 23.4768 4035.64 5474.43 
423 0.8156 0.8156 0 0.000750379 0.000750379 -4.71918e-06 36.2872 5177.27 7028.01 
503 0.9006 0.9006 0 0.000640033 0.000640033 1.44e-05 39.8877 5036.77 6911.87 
583 0.8664 0.8664 0 0.000590219 0.000590219 -1.45798e-05 37.7453 4391.61 6076.37 
663 0.0866 0.0866 0 -0.000332012 -0.000332012 5.50912e-06 3.32012 282.807 383.707 
743 0.1964 0.1964 0 -0.000856123 -0.000856123 8.48178e-06 8.56123 616.214 891.433 
823 0.2116 0.2116 0 -0.000901883 -0.000901883 9.66789e-06 9.01883 736.32 1122.13 
903 0.124 0.124 0 -0.000504277 -0.000504277 2.00103e-06 5.04277 329.465 497.874 
983 0.813 0.813 0 0.000700674 0.000700674 -4.76845e-05 35.3095 4428.9 6186.48 
1063 0.9294 0.9294 0 0.000668446 0.000668446 -4.89124e-05 41.0887 4772.66 6615.19 
1143 0.8122 0.8122 0 0.00074786 0.00074786 -4.93037e-05 36.4492 5278.77 6893.75 
1223 0.6616 0.6616 0 0.000864458 0.000864458 2.86239e-05 29.0662 4853.47 6355.08 
24 7.8264 7.8264 0 0.0339058 0.0339058 -0.000117428 339.058 34139.4 47172 
104 10.4102 10.4102 0 0.043144 0.043144 -9.10564e-05 431.44 26395.7 37033.3 
184 10.6326 10.6326 0 0.0438223 0.0438223 -0.000130032 438.223 25202.9 34474.6 