ITEM: TIMESTEP
25000
ITEM: NUMBER OF SURFS
1248
ITEM: BOX BOUNDS oo rr pp
0 0.3
0 0.3
-0.5 0.5
ITEM: SURFS id f_4[1] f_4[2] f_4[3] f_4[4] f_4[5] f_4[6] f_4[7] f_4[8] f_4[9] 
1 0.2868 0.2868 0 0.00505156 0.00505156 4.04711e-05 229.441 28516.4 32013.4 
41 8.6614 8.6614 0 0.358404 0.358404 -0.000587391 3584.04 230358 330938 
81 10.227 10.227 0 0.4156 0.4156 -0.0012777 4156 200320 290511 
121 10.7914 10.7914 0 0.436043 0.436043 -0.00145424 4360.43 194938 283963 
161 10.9652 10.9652 0 0.443238 0.443238 0.000371199 4432.38 186455 271944 
201 10.8112 10.8112 0 0.437174 0.437174 -0.000269634 4371.74 198932 286541 
241 10.621 10.621 0 0.428551 0.428551 0.000570801 4285.51 192707 276069 
281 9.876 9.876 0 0.402861 0.402861 -0.0004119 4028.61 204205 295643 
321 2.0854 2.0854 0 0.0872807 0.0872807 0.000184167 1774.32 158338 205662 
361 0.5534 0.5534 0 0.0046283 0.0046283 5.7903e-05 220.888 13580.7 16846.1 
401 0.65 0.65 0 0.00288046 0.00288046 0.000263924 261.929 10537.4 13802 
441 0.7726 0.7726 0 0.00242733 0.00242733 -0.000359938 305.783 10951.5 14540.3 
481 0.842 0.842 0 0.00217121 0.00217121 -0.000217577 334.583 12335.5 17079.8 
521 0.9038 0.9038 0 0.00200972 0.00200972 0.00017977 359.288 9453.11 13914.9 
561 0.8988 0.8988 0 0.00232491 0.00232491 4.42795e-05 356.626 11493.9 15718.3 
601 0.8736 0.8736 0 0.00287673 0.00287673 -0.000427146 345.9 13796.9 18026.7 
641 0.0718 0.0718 0 -0.0012396 -0.0012396 9.23154e-05 56.7474 3651.2 3621.41 
681 0.2188 0.2188 0 -0.0087103 -0.0087103 -3.16578e-05 87.103 1037.98 1649.41 
721 0.2296 0.2296 0 -0.00907652 -0.00907652 0.000107592 90.7652 1349.06 1926.41 
761 0.2442 0.2442 0 -0.00976333 -0.00976333 -5.5247e-05 97.6333 3076.36 3857.15 
801 0.2486 0.2486 0 -0.0101441 -0.0101441 0.000190157 101.441 4398.15 6148.59 
841 0.239 0.239 0 -0.00949515 -0.00949515 9.06593e-05 94.9515 3256.39 4479.95 
881 0.2238 0.2238 0 -0.00889426 -0.00889426 -0.000358863 88.9426 1420.97 2725.32 
921 0.2258 0.2258 0 -0.00878193 -0.00878193 -0.000224774 87.8193 -10.4504 1010.46 
961 0.1844 0.1844 0 -0.000682789 -0.000682789 0.000251599 145.352 7321.48 10103.6 
1001 0.9102 0.9102 0 0.00259499 0.00259499 -5.48414e-05 360.229 12320 15649.9 
1041 0.8974 0.8974 0 0.002388 0.002388 -0.000437245 361.508 12217.7 14980.7 
1081 0.8844 0.8844 0 0.00186813 0.00186813 -4.21644e-06 355.146 11990.9 16675 
1121 0.8116 0.8116 0 0.00221393 0.00221393 -0.000111192 324.076 12573.2 15890.8 
1161 0.7568 0.7568 0 0.00251056 0.00251056 0.000177282 300.513 10376.2 13627.4 
1201 0.6224 0.6224 0 0.00297372 0.00297372 -4.96759e-05 249.074 10680.2 14362.5 
1241 0.5672 0.5672 0 0.00622328 0.00622328 -0.000250467 227.288 19180 23213.9 
2 0.2772 0.2772 0 0.00526399 0.00526399 -3.76082e-05 227.101 24950.2 30820.6 
42 8.6656 8.6656 0 0.358794 0.358794 -5.29352e-05 3587.94 229680 324368 
82 10.3772 10.3772 0 0.421885 0.421885 -0.00066396 4218.85 207114 294979 
122 10.8848 10.8848 0 0.439619 0.439619 -3.56482e-05 4396.19 184783 273975 
162 10.8548 10.8548 0 0.437686 0.437686 -0.0020003 4376.86 185612 267898 
202 10.8868 10.8868 0 0.439216 0.439216 -0.000703918 4392.16 190206 279044 
242 10.592 10.592 0 0.42766 0.42766 -0.00181323 4276.6 194924 280190 
282 9.8432 9.8432 0 0.402443 0.402443 2.65772e-05 4024.43 212674 306160 
322 2.1334 2.1334 0 0.0897515 0.0897515 0.000267276 1819.52 186461 236187 
362 0.5576 0.5576 0 0.00406074 0.00406074 -0.000170534 227.035 13088.2 17109.2 
402 0.6722 0.6722 0 0.0026938 0.0026938 0.000170932 267.601 11391.1 14125 
442 0.761 0.761 0 0.00201321 0.00201321 -5.53185e-05 304.688 11587.1 14742.1 
482 0.8328 0.8328 0 0.00194802 0.00194802 0.000210293 325.612 9736.51 13383.5 
522 0.9058 0.9058 0 0.00221088 0.00221088 0.000383563 354.49 11816.7 17155.5 
562 0.924 0.924 0 0.00240293 0.00240293 -0.000214576 365.531 14209.6 18398.9 
602 0.881 0.881 0 0.00274595 0.00274595 -0.00015054 356.017 10337.1 14644.6 
642 0.0762 0.0762 0 -0.00143239 -0.00143239 2.174e-06 55.5946 3701.82 4666.77 
682 0.2266 0.2266 0 -0.00877085 -0.00877085 0.000178342 87.7085 1164.61 1699.37 
722 0.2388 0.2388 0 -0.00932482 -0.00932482 -0.000483135 93.2482 1664.05 2064.56 
762 0.2402 0.2402 0 -0.00936482 -0.00936482 -7.1666e-05 93.6482 2564.44 4039.08 
802 0.2452 0.2452 0 -0.00968068 -0.00968068 -2.02548e-05 96.8068 3752.34 5229.24 
842 0.2434 0.2434 0 -0.00973366 -0.00973366 -0.000173558 97.3366 3852.88 5313.9 
882 0.2264 0.2264 0 -0.0088435 -0.0088435 0.00022279 88.435 1742.19 2610.21 
922 0.2242 0.2242 0 -0.00859986 -0.00859986 -2.14639e-05 85.9986 2791.1 3063.76 
962 0.1886 0.1886 0 -0.000767542 -0.000767542 -3.12703e-05 151.652 6900.01 8068.25 
1002 0.8674 0.8674 0 0.00212175 0.00212175 -0.000115811 344.849 11871.8 15903.7 
1042 0.908 0.908 0 0.0019215 0.0019215 0.000303326 363.187 11169.5 15461.2 
1082 0.8654 0.8654 0 0.00232184 0.00232184 3.8097e-05 341.821 10142.4 14755.2 
1122 0.8068 0.8068 0 0.00234032 0.00234032 -2.98436e-05 322.015 8656.71 12740.6 
1162 0.7492 0.7492 0 0.00221077 0.00221077 -5.74594e-06 297.479 12841.9 17273.4 
1202 0.6534 0.6534 0 0.00309328 0.00309328 -0.000227231 262.959 11234.7 15768 
1242 0.5648 0.5648 0 0.00672627 0.00672627 -0.000233081 228.932 19297.5 23200.7 
3 0.2966 0.2966 0 0.00634918 0.00634918 0.000167902 242.573 31647.2 35904.2 
43 8.8134 8.8134 0 0.36557 0.36557 -8.13894e-05 3655.7 232873 334441 
83 10.2972 10.2972 0 0.418753 0.418753 0.000534979 4187.53 205601 297368 
123 10.8822 10.8822 0 0.439724 0.439724 -0.0011367 4397.24 192806 283025 
163 11.1442 11.1442 0 0.448926 0.448926 0.00103922 4489.26 186550 272396 
203 10.8524 10.8524 0 0.438423 0.438423 -0.00133339 4384.23 184802 273509 
243 10.635 10.635 0 0.429695 0.429695 3.84524e-06 4296.95 193639 285054 
283 9.8152 9.8152 0 0.400842 0.400842 0.000509053 4008.42 212311 306939 
323 1.9918 1.9918 0 0.0823935 0.0823935 0.000173899 1690.25 170035 222884 
363 0.5694 0.5694 0 0.00446847 0.00446847 -7.62484e-05 227.782 14832.1 19234.5 
403 0.6638 0.6638 0 0.00244598 0.00244598 -0.000141837 265.838 11561.9 16053.1 
443 0.761 0.761 0 0.00200959 0.00200959 -0.000345146 305.081 10767 12959.2 
483 0.8446 0.8446 0 0.00177147 0.00177147 0.000593605 338.362 11560.5 16071 
523 0.898 0.898 0 0.00235276 0.00235276 -0.000275146 359.737 11316.1 14987.2 
563 0.9108 0.9108 0 0.00197697 0.00197697 -7.82955e-05 361.43 11644.4 15658.7 
603 0.8336 0.8336 0 0.00290464 0.00290464 -5.66066e-05 333.078 12474 16231.3 
643 0.064 0.064 0 -0.00137203 -0.00137203 -5.88795e-05 47.806 1924.5 2662.68 
683 0.237 0.237 0 -0.00918762 -0.00918762 -7.7503e-05 91.8762 1513.57 1767.01 
723 0.2302 0.2302 0 -0.00905994 -0.00905994 -2.66426e-05 90.5994 1324.62 2622.33 
763 0.2368 0.2368 0 -0.00926657 -0.00926657 4.50365e-05 92.6657 3153.54 3934.46 
803 0.2578 0.2578 0 -0.01044 -0.01044 0.000220868 104.4 3893.9 5191.93 
843 0.24 0.24 0 -0.00941305 -0.00941305 6.82761e-05 94.1305 2588.71 3592.62 
883 0.236 0.236 0 -0.00915823 -0.00915823 0.000131239 91.5823 1416.36 2295.08 
923 0.2174 0.2174 0 -0.00858335 -0.00858335 0.00025835 85.8335 1837.43 2396.98 
963 0.2066 0.2066 0 -0.000261504 -0.000261504 -3.50861e-05 163.603 8475.49 11276.1 
1003 0.877 0.877 0 0.00213931 0.00213931 -0.000511882 346.02 10998.2 14444.5 
1043 0.9202 0.9202 0 0.00241757 0.00241757 -0.000150076 365.601 10429.9 16076.9 
1083 0.8918 0.8918 0 0.00194654 0.00194654 0.000416376 352.074 12638.1 16944.5 
1123 0.851 0.851 0 0.00249958 0.00249958 7.62286e-05 341.593 9554.54 15192.5 
1163 0.7286 0.7286 0 0.00241946 0.00241946 0.000229027 292.909 10530.1 15373.4 
1203 0.6306 0.6306 0 0.00280701 0.00280701 -0.000140493 256.82 11939.5 15771.1 
1243 0.574 0.574 0 0.00695098 0.00695098 9.40619e-05 230.455 20424.2 24460.1 
4 0.3528 0.3528 0 0.00766439 0.00766439 -8.53867e-05 291.642 33614.2 39041 
44 8.9666 8.9666 0 0.369835 0.369835 -0.00107403 3698.35 225783 323902 
84 10.3164 10.3164 0 0.41983 0.41983 0.000500184 4198.3 201626 291604 
124 10.7336 10.7336 0 0.434344 0.434344 0.000653125 4343.44 191848 274383 
164 10.834 10.834 0 0.436574 0.436574 -0.000258927 4365.74 178541 257615 
204 10.9352 10.9352 0 0.440583 0.440583 -0.0010122 4405.83 200134 289635 
244 10.5966 10.5966 0 0.429814 0.429814 -5.61773e-06 4298.14 193704 285600 
284 9.752 9.752 0 0.398489 0.398489 0.000505663 3984.89 213255 306037 
324 1.7128 1.7128 0 0.0692767 0.0692767 -0.00018149 1438.75 143733 186612 
364 0.5544 0.5544 0 0.00397872 0.00397872 0.000103122 223.378 13255.4 16923.4 
404 0.6742 0.6742 0 0.00267263 0.00267263 8.03647e-05 269.94 10273.4 14186.5 
444 0.796 0.796 0 0.00248092 0.00248092 -0.000155838 317.981 10207.8 14721.7 
484 0.8536 0.8536 0 0.00246407 0.00246407 -0.000290416 336.669 10157.6 15242.1 
524 0.9062 0.9062 0 0.00188928 0.00188928 6.68505e-05 357.736 11763.5 16111.4 
564 0.9162 0.9162 0 0.0026973 0.0026973 -0.000154316 365.717 12111.8 15499.8 
604 0.8376 0.8376 0 0.0026613 0.0026613 -0.000208882 330.985 11986.8 16205 
644 0.0606 0.0606 0 -0.00123319 -0.00123319 3.69278e-05 44.0273 3028.56 3940.79 
684 0.233 0.233 0 -0.00907124 -0.00907124 -9.40949e-05 90.7124 1036.05 1640.82 
724 0.223 0.223 0 -0.00890095 -0.00890095 -8.53147e-06 89.0095 2467.12 2810.1 
764 0.2422 0.2422 0 -0.00953357 -0.00953357 -0.000344605 95.3357 3495.74 4945.95 
804 0.2586 0.2586 0 -0.0102878 -0.0102878 -2.96954e-05 102.878 3810.07 5134.5 
844 0.239 0.239 0 -0.00949361 -0.00949361 -9.56477e-05 94.9361 2818.35 3737.27 
884 0.2324 0.2324 0 -0.00920076 -0.00920076 -0.000254115 92.0076 218.662 1175.71 
924 0.217 0.217 0 -0.00825752 -0.00825752 -0.000163916 82.5752 1829.31 2327.23 
964 0.2236 0.2236 0 1.68128e-05 1.68128e-05 0.00016296 179.579 9238.95 11755.2 
1004 0.8736 0.8736 0 0.00220866 0.00220866 -9.00358e-05 342.548 10067.7 13669.8 
1044 0.9116 0.9116 0 0.00207619 0.00207619 0.000280798 359.486 12463.9 15521 
1084 0.8558 0.8558 0 0.00228913 0.00228913 -0.000139835 343.214 9633 12952.1 
1124 0.8218 0.8218 0 0.00182033 0.00182033 -0.000134758 324.266 11277.1 15185.7 
1164 0.712 0.712 0 0.00203324 0.00203324 0.000189413 285.054 8541.51 12977.8 
1204 0.6216 0.6216 0 0.00296379 0.00296379 0.000192747 248.93 11890.7 14194.7 
1244 0.5854 0.5854 0 0.00783244 0.00783244 -0.00010952 231.741 22033.8 25627.4 
5 0.3776 0.3776 0 0.00809283 0.00809283 1.48538e-05 309.299 30035.6 33637.3 
45 8.82 8.82 0 0.364915 0.364915 0.000472269 3649.15 227237 321754 
85 10.4486 10.4486 0 0.423718 0.423718 -0.0011167 4237.18 204390 294244 
125 10.7006 10.7006 0 0.432707 0.432707 -0.000360933 4327.07 182651 265175 
165 11.0834 11.0834 0 0.447016 0.447016 0.00114112 4470.16 185584 271999 
205 10.8468 10.8468 0 0.437667 0.437667 0.00024704 4376.67 191732 279261 
245 10.6364 10.6364 0 0.430599 0.430599 -0.000119948 4305.99 190864 277150 
285 9.664 9.664 0 0.395231 0.395231 0.000178162 3952.31 204478 302655 
325 1.7582 1.7582 0 0.0700886 0.0700886 -0.000574261 1491.11 143655 188018 
365 0.5638 0.5638 0 0.00416768 0.00416768 0.000376353 228.508 13206.2 15910.1 
405 0.6652 0.6652 0 0.00279724 0.00279724 -0.000128178 268.217 12856.8 17730.2 
445 0.7598 0.7598 0 0.00233837 0.00233837 0.000219486 302.141 9274.14 12934.6 
485 0.8324 0.8324 0 0.00194575 0.00194575 0.000150234 327.955 11160.8 14878.3 
525 0.8892 0.8892 0 0.00230444 0.00230444 -3.24447e-05 353.753 9889.06 13704.7 
565 0.911 0.911 0 0.0025362 0.0025362 -6.58777e-05 361.35 10666.1 14048.7 
605 0.834 0.834 0 0.00258871 0.00258871 0.000193621 331.829 12277 15638.3 
645 0.0574 0.0574 0 -0.00129939 -0.00129939 -2.73898e-05 42.0404 2733.61 3284.13 
685 0.2218 0.2218 0 -0.00857616 -0.00857616 -6.28616e-05 85.7616 764.856 1891.74 
725 0.2332 0.2332 0 -0.00921455 -0.00921455 0.00021227 92.1455 1669 3031.6 
765 0.2408 0.2408 0 -0.00950157 -0.00950157 0.00052763 95.0157 2791.17 3740.09 
805 0.2412 0.2412 0 -0.00968046 -0.00968046 -8.75958e-05 96.8046 3366.72 4461.5 
845 0.2308 0.2308 0 -0.0090591 -0.0090591 -0.000336364 90.591 2707.72 3739.76 
885 0.2394 0.2394 0 -0.00953544 -0.00953544 4.70887e-05 95.3544 2624.34 2963.06 
925 0.2138 0.2138 0 -0.00835426 -0.00835426 -1.98062e-05 83.5426 548.239 1171.35 
965 0.2336 0.2336 0 0.000514527 0.000514527 2.70168e-05 188.281 12085.3 15167.8 
1005 0.9158 0.9158 0 0.00261825 0.00261825 -9.76005e-05 367.531 13459.7 17545.1 
1045 0.9406 0.9406 0 0.00205794 0.00205794 -1.89929e-05 369.485 12309.9 15025.3 
1085 0.8772 0.8772 0 0.00206778 0.00206778 -0.000155068 351.015 12840.1 15266.8 
1125 0.8256 0.8256 0 0.00220702 0.00220702 0.000144371 326.189 11990.9 16644 
1165 0.7526 0.7526 0 0.0023379 0.0023379 8.18806e-05 300.731 12392.2 15596.4 
1205 0.609 0.609 0 0.0031543 0.0031543 -0.000103447 244.145 10077.6 14326.2 
1245 0.591 0.591 0 0.00790712 0.00790712 0.000214865 236.955 23849.4 28398.6 
6 0.4432 0.4432 0 0.0105994 0.0105994 -0.000161649 358.116 36675.4 43006.3 
46 8.9906 8.9906 0 0.370897 0.370897 0.000489927 3708.97 219628 316648 
86 10.3574 10.3574 0 0.419731 0.419731 0.00109038 4197.31 205391 293857 
126 10.7734 10.7734 0 0.436392 0.436392 0.000437254 4363.92 190667 277769 
166 10.8868 10.8868 0 0.440133 0.440133 -0.000109552 4401.33 186622 274999 
206 10.8674 10.8674 0 0.438621 0.438621 -0.000965129 4386.21 190535 280400 
246 10.5202 10.5202 0 0.426746 0.426746 -0.000473076 4267.46 188169 279517 
286 9.6482 9.6482 0 0.395763 0.395763 -0.000202325 3957.63 213416 301386 
326 1.747 1.747 0 0.0680682 0.0680682 0.000344803 1477.05 138845 175277 
366 0.577 0.577 0 0.00421002 0.00421002 7.72182e-05 230.035 11616.8 15030 
406 0.6598 0.6598 0 0.00241913 0.00241913 -6.91526e-05 262.889 10004.7 14058 
446 0.7586 0.7586 0 0.00190665 0.00190665 0.000158455 304.956 9210.72 11960.1 
486 0.8484 0.8484 0 0.00187562 0.00187562 0.000163107 337.448 10515.3 14567.2 
526 0.908 0.908 0 0.00268018 0.00268018 -2.67396e-05 362.013 10318.7 13583.9 
566 0.926 0.926 0 0.00160813 0.00160813 6.70444e-05 366.355 10184.1 14241.9 
606 0.8508 0.8508 0 0.00318157 0.00318157 -0.000113725 339.72 14300.9 17796.9 
646 0.0512 0.0512 0 -0.00139512 -0.00139512 1.35054e-05 37.8512 894.028 1084.89 
686 0.2314 0.2314 0 -0.00889123 -0.00889123 6.38201e-05 88.9123 1480.22 2128.91 
726 0.2224 0.2224 0 -0.00864172 -0.00864172 0.000117463 86.4172 2182.72 3645.87 
766 0.2388 0.2388 0 -0.00941502 -0.00941502 0.000150456 94.1502 1928.82 3072.75 
806 0.2626 0.2626 0 -0.0106161 -0.0106161 0.000125355 106.161 3662.42 5222.38 
846 0.246 0.246 0 -0.00965788 -0.00965788 -0.000133468 96.5788 3340.72 4183.09 
886 0.2286 0.2286 0 -0.00893937 -0.00893937 -6.54181e-05 89.3937 841.561 1745.63 
926 0.2128 0.2128 0 -0.00851261 -0.00851261 2.4885e-05 85.1261 1708.31 2296.39 
966 0.2504 0.2504 0 0.00112503 0.00112503 0.0001275 200.768 10544.6 13128 
1006 0.8656 0.8656 0 0.00259221 0.00259221 -0.000221356 348.022 11883.8 15621.1 
1046 0.8998 0.8998 0 0.0020421 0.0020421 -6.93813e-05 355.645 12454.6 17373.7 
1086 0.8998 0.8998 0 0.002475 0.002475 -6.28726e-05 358.792 13933.9 18995.9 
1126 0.8022 0.8022 0 0.00205323 0.00205323 0.000217144 318.601 8861.89 13718.9 
1166 0.7252 0.7252 0 0.00227555 0.00227555 0.000138277 289.002 11122.9 14882.2 
1206 0.5962 0.5962 0 0.00292542 0.00292542 -0.000289694 239.694 10400 14462.9 
1246 0.5774 0.5774 0 0.00837417 0.00837417 0.00024363 232.883 27330.1 31902.5 
7 0.5698 0.5698 0 0.0144879 0.0144879 0.000371658 460.287 44789 53547.2 
47 9.106 9.106 0 0.375709 0.375709 -0.00014503 3757.09 230850 326082 
87 10.2872 10.2872 0 0.418685 0.418685 -0.00110366 4186.85 193812 281408 
127 10.7516 10.7516 0 0.434372 0.434372 -0.000278564 4343.72 189703 279266 
167 10.7688 10.7688 0 0.434351 0.434351 -0.00026083 4343.51 182286 263142 
207 10.9268 10.9268 0 0.441647 0.441647 3.4225e-06 4416.47 197426 285390 
247 10.4666 10.4666 0 0.424622 0.424622 -0.000956094 4246.22 199496 286641 
287 9.7404 9.7404 0 0.398369 0.398369 -6.05365e-05 3983.69 217509 312668 
327 1.4972 1.4972 0 0.0573786 0.0573786 -0.000250439 1261.13 115333 147697 
367 0.5662 0.5662 0 0.00362079 0.00362079 -0.000623189 229.478 14549.5 17883.3 
407 0.6822 0.6822 0 0.00292688 0.00292688 -0.000164376 274.17 10467.7 13975.2 
447 0.7828 0.7828 0 0.00252462 0.00252462 -0.000165446 314.842 11619.7 15363.2 
487 0.8342 0.8342 0 0.00201692 0.00201692 -0.000113615 328.254 10506 13855.3 
527 0.912 0.912 0 0.00209557 0.00209557 0.000181571 361.324 11307.4 15892.2 
567 0.9226 0.9226 0 0.00259202 0.00259202 -0.000165666 367.807 12397.1 16458.3 
607 0.8252 0.8252 0 0.00305914 0.00305914 0.000167813 328.37 10883.2 14705.1 
647 0.0486 0.0486 0 -0.00141648 -0.00141648 -3.75294e-05 35.9138 158.452 505.968 
687 0.23 0.23 0 -0.00869745 -0.00869745 -0.000189205 86.9745 2010.39 2819.4 
727 0.2236 0.2236 0 -0.00895108 -0.00895108 5.63755e-05 89.5108 1359.34 1637.38 
767 0.2358 0.2358 0 -0.00939716 -0.00939716 -2.03828e-05 93.9716 2826.02 3827.95 
807 0.2386 0.2386 0 -0.00976196 -0.00976196 2.40105e-05 97.6196 4314.74 5355.47 
847 0.2344 0.2344 0 -0.00911064 -0.00911064 0.000121998 91.1064 2524.53 3770.92 
887 0.2236 0.2236 0 -0.00878141 -0.00878141 -6.2104e-05 87.8141 1328.82 2517.21 
927 0.2118 0.2118 0 -0.00827486 -0.00827486 6.30775e-05 82.7486 589.806 1352.08 
967 0.2804 0.2804 0 0.00148357 0.00148357 -0.000188925 232.411 11605.6 15042 
1007 0.8872 0.8872 0 0.00238913 0.00238913 8.52076e-05 351.432 11907 17088.5 
1047 0.9018 0.9018 0 0.00156202 0.00156202 -0.000110641 358.748 11654 15257.9 
1087 0.8526 0.8526 0 0.00235098 0.00235098 -7.47933e-05 343.03 12667.3 16236.7 
1127 0.808 0.808 0 0.00208114 0.00208114 0.000191673 325.06 10276.7 15202.6 
1167 0.7326 0.7326 0 0.00263906 0.00263906 -0.00014218 294.986 11692.1 15141.9 
1207 0.6218 0.6218 0 0.00295579 0.00295579 0.000165293 251.095 10808.3 15136.6 
1247 0.5516 0.5516 0 0.00843131 0.00843131 4.43013e-05 220.528 25852.8 30848.2 
8 0.6678 0.6678 0 0.0178726 0.0178726 7.77575e-05 547.438 53694.2 65210.8 
48 9.252 9.252 0 0.37965 0.37965 0.00144081 3796.5 222405 319911 
88 10.407 10.407 0 0.424413 0.424413 -5.27377e-05 4244.13 201816 294148 
128 10.8666 10.8666 0 0.438181 0.438181 -0.00120002 4381.81 188377 271609 
168 11.0318 11.0318 0 0.445104 0.445104 -0.00181531 4451.04 183363 264003 
208 10.8326 10.8326 0 0.438558 0.438558 0.00190129 4385.58 190528 275041 
248 10.5346 10.5346 0 0.427421 0.427421 0.000972413 4274.21 204041 290263 
288 9.4568 9.4568 0 0.387338 0.387338 0.000588055 3873.38 209551 304429 
328 1.1358 1.1358 0 0.0434194 0.0434194 -7.74061e-05 962.977 99231.2 127316 
368 0.5636 0.5636 0 0.00373818 0.00373818 -0.000284805 223.332 11364.2 15224.6 
408 0.6752 0.6752 0 0.00266867 0.00266867 -5.37613e-05 268.32 10330.1 13908.3 
448 0.754 0.754 0 0.00177481 0.00177481 8.51713e-05 301.624 11022.3 16492.3 
488 0.8628 0.8628 0 0.0018364 0.0018364 -0.000412371 344.313 10462.5 15035.7 
528 0.9046 0.9046 0 0.00207202 0.00207202 0.000305145 356.863 11614.2 15713 
568 0.8788 0.8788 0 0.00226396 0.00226396 0.000145576 347.898 10063.5 13928.5 
608 0.839 0.839 0 0.00296135 0.00296135 0.000100043 332.205 10783 14862.5 
648 0.0488 0.0488 0 -0.00149154 -0.00149154 5.93492e-05 36.4713 1028.26 970.382 
688 0.2374 0.2374 0 -0.00922946 -0.00922946 6.30122e-05 92.2946 718.625 972.48 
728 0.2232 0.2232 0 -0.00870706 -0.00870706 -0.000206357 87.0706 2174.91 3288.74 
768 0.2494 0.2494 0 -0.00987987 -0.00987987 -7.97642e-05 98.7987 3576.48 5417.64 
808 0.2586 0.2586 0 -0.010582 -0.010582 -2.02101e-05 105.82 2784.85 3741.47 
848 0.2304 0.2304 0 -0.00894396 -0.00894396 -1.79479e-05 89.4396 3273.58 4402.65 
888 0.2274 0.2274 0 -0.00899969 -0.00899969 0.000102079 89.9969 1970.53 2886.47 
928 0.1956 0.1956 0 -0.00759292 -0.00759292 2.16154e-05 75.9292 742.236 1645.52 
968 0.3034 0.3034 0 0.00188813 0.00188813 -1.79813e-05 246.744 13127.9 17812.7 
1008 0.8842 0.8842 0 0.00218456 0.00218456 6.81697e-06 350.156 10484.5 15162.9 
1048 0.9074 0.9074 0 0.00184164 0.00184164 -0.000235692 359.485 11379.3 15783.3 
1088 0.8642 0.8642 0 0.0019089 0.0019089 -0.000372233 341.484 9520.77 13200.3 
1128 0.8372 0.8372 0 0.00193291 0.00193291 -8.36121e-05 333.756 11092.1 16019.9 
1168 0.7028 0.7028 0 0.00205711 0.00205711 0.000370726 281.465 9403.76 12927.6 
1208 0.5932 0.5932 0 0.00309767 0.00309767 -0.000108526 235.022 9607.19 13619.4 
1248 0.5528 0.5528 0 0.00911525 0.00911525 -0.00010753 217.804 28229.6 31704.7 
9 0.682 0.682 0 0.0206001 0.0206001 -2.25397e-05 565.047 67832.7 83290.7 
49 9.131 9.131 0 0.375802 0.375802 0.00115005 3758.02 227797 323663 
89 10.5018 10.5018 0 0.425658 0.425658 -0.000607505 4256.58 206298 299946 
129 10.8558 10.8558 0 0.438363 0.438363 0.000562353 4383.63 194041 280813 
169 10.8988 10.8988 0 0.440415 0.440415 -1.36613e-05 4404.15 182029 269029 
209 10.9348 10.9348 0 0.442212 0.442212 -0.000509579 4422.12 198586 285477 
249 10.5542 10.5542 0 0.426597 0.426597 0.000235999 4265.97 193733 282589 
289 9.5368 9.5368 0 0.390705 0.390705 0.000343186 3907.05 212529 304474 
329 1.1384 1.1384 0 0.0433287 0.0433287 8.74815e-05 975.572 118009 148720 
369 0.5568 0.5568 0 0.00322131 0.00322131 -2.16567e-05 223.72 12117.8 15999.2 
409 0.6794 0.6794 0 0.00233522 0.00233522 1.70706e-05 273.054 10933.7 15599.4 
449 0.7798 0.7798 0 0.0023702 0.0023702 -0.000218762 310.195 10387.7 14704.2 
489 0.844 0.844 0 0.00177973 0.00177973 0.000405446 338.26 11220.8 15629 
529 0.8778 0.8778 0 0.0021095 0.0021095 0.000247829 346.45 12969.9 17186.9 
569 0.8948 0.8948 0 0.00217899 0.00217899 0.000265549 352.156 10261.3 12916.5 
609 0.7986 0.7986 0 0.00272092 0.00272092 0.000210959 318.688 9153.78 13522.7 
649 0.0534 0.0534 0 -0.00163146 -0.00163146 9.32146e-05 38.9007 2062.65 1607.77 
689 0.2296 0.2296 0 -0.00897513 -0.00897513 5.64659e-05 89.7513 1304.24 1836.49 
729 0.23 0.23 0 -0.0090305 -0.0090305 0.000110574 90.305 2255.97 2891.83 
769 0.2496 0.2496 0 -0.00996351 -0.00996351 0.000354119 99.6351 3317.47 4918.8 
809 0.2454 0.2454 0 -0.00992556 -0.00992556 0.000109148 99.2556 3321.49 5084.81 
849 0.2424 0.2424 0 -0.00971046 -0.00971046 0.000320804 97.1046 2453.82 4078.9 
889 0.2338 0.2338 0 -0.00926621 -0.00926621 1.23392e-05 92.6621 1762.79 2182.77 
929 0.204 0.204 0 -0.00804911 -0.00804911 4.2156e-05 80.4911 1331.45 1113.5 
969 0.6214 0.6214 0 0.00444489 0.00444489 0.000250705 250.659 10981.1 14804 
1009 0.9222 0.9222 0 0.00276851 0.00276851 -4.4668e-05 366.91 8955.91 13077.1 
1049 0.9072 0.9072 0 0.00213511 0.00213511 0.000124388 357.965 12556.4 15964.5 
1089 0.868 0.868 0 0.00220399 0.00220399 0.00013832 349.836 11853.3 15877.7 
1129 0.7908 0.7908 0 0.00184491 0.00184491 0.00023819 315.79 11262.9 15426.3 
1169 0.7266 0.7266 0 0.00229021 0.00229021 -3.9749e-05 289.912 12050.5 13801.6 
1209 0.6182 0.6182 0 0.00319183 0.00319183 -2.82004e-05 244.655 11991.2 16231.2 
10 0.7518 0.7518 0 0.0236349 0.0236349 0.00044621 630.216 76625.4 95306 
50 9.3594 9.3594 0 0.384964 0.384964 -2.42474e-05 3849.64 223690 325374 
90 10.4214 10.4214 0 0.423545 0.423545 0.000345169 4235.45 200496 296985 
130 10.9052 10.9052 0 0.439109 0.439109 -0.000691028 4391.09 201816 285935 
170 10.9262 10.9262 0 0.440142 0.440142 0.000833919 4401.42 186153 271629 
210 10.8938 10.8938 0 0.439266 0.439266 0.000657555 4392.66 190364 277048 
250 10.4946 10.4946 0 0.425125 0.425125 0.000614843 4251.25 199669 289696 
290 9.5136 9.5136 0 0.389605 0.389605 -0.00143688 3896.05 213411 304872 
330 1.2178 1.2178 0 0.0438041 0.0438041 -0.000515437 1035.57 102669 130572 
370 0.5764 0.5764 0 0.00442638 0.00442638 -8.27704e-05 234.276 11436.4 15609 
410 0.6978 0.6978 0 0.00275538 0.00275538 0.000230621 277.508 11780.3 15662.3 
450 0.7676 0.7676 0 0.00213271 0.00213271 -0.000145782 305.121 9538.4 14466 
490 0.831 0.831 0 0.0016537 0.0016537 4.45443e-06 330.992 11019.7 15369.7 
530 0.9046 0.9046 0 0.00231569 0.00231569 -0.000483105 357.785 11573.9 14273.9 
570 0.9468 0.9468 0 0.00237091 0.00237091 9.63317e-06 372.67 11432.6 17485 
610 0.8342 0.8342 0 0.00301134 0.00301134 -0.000412685 330.873 13064.9 17173.9 
650 0.0486 0.0486 0 -0.00170447 -0.00170447 -0.000105453 37.4484 2676.78 2565.4 
690 0.2296 0.2296 0 -0.00911329 -0.00911329 0.000156759 91.1329 1939.18 2698.89 
730 0.2308 0.2308 0 -0.00919051 -0.00919051 -7.56525e-05 91.9051 3182.42 4060.07 
770 0.2444 0.2444 0 -0.00966546 -0.00966546 -0.000116584 96.6546 3006.6 4684.2 
810 0.243 0.243 0 -0.00977466 -0.00977466 -0.000311076 97.7466 2675.49 3999.4 
850 0.2306 0.2306 0 -0.00903331 -0.00903331 0.000199076 90.3331 2139.99 3439.94 
890 0.2274 0.2274 0 -0.00903221 -0.00903221 0.000100659 90.3221 1329.58 2205.12 
930 0.1876 0.1876 0 -0.00739173 -0.00739173 7.14619e-05 73.9173 1675.19 2630.91 
970 0.661 0.661 0 0.00395539 0.00395539 0.000107222 265.076 10548.2 15222.2 
1010 0.9162 0.9162 0 0.00243205 0.00243205 -2.54393e-06 362.471 14015 18430.4 
1050 0.9194 0.9194 0 0.00191322 0.00191322 2.09168e-05 363.933 12265.7 16037.9 
1090 0.8558 0.8558 0 0.00194848 0.00194848 -0.000221297 339.527 13422.7 17746 
1130 0.8042 0.8042 0 0.00231306 0.00231306 -0.000457636 319.083 11900.4 15758.3 
1170 0.7116 0.7116 0 0.00268648 0.00268648 -6.72491e-05 286.283 10531.1 13405.2 
1210 0.5978 0.5978 0 0.00249402 0.00249402 -2.08927e-05 238.913 11104.9 15273.6 
11 0.8114 0.8114 0 0.0267715 0.0267715 -0.000209594 684.811 81459.6 96997.4 
51 9.3174 9.3174 0 0.382283 0.382283 -0.000115426 3822.83 219751 321749 
91 10.358 10.358 0 0.419597 0.419597 0.000263602 4195.97 195589 286498 
131 10.7156 10.7156 0 0.432928 0.432928 -0.000584855 4329.28 181556 263733 
171 10.973 10.973 0 0.4428 0.4428 0.000396128 4428 181524 270033 
211 10.8746 10.8746 0 0.439135 0.439135 -0.000153541 4391.35 185632 271331 
251 10.5 10.5 0 0.426099 0.426099 -0.000132373 4260.99 192527 282069 
291 9.375 9.375 0 0.385723 0.385723 0.000393442 3857.23 213949 309818 
331 1.1506 1.1506 0 0.0395732 0.0395732 0.000695073 965.128 98510.3 121100 
371 0.568 0.568 0 0.00342225 0.00342225 0.000424355 230.972 12396.1 15395.9 
411 0.6758 0.6758 0 0.00280223 0.00280223 0.000250278 269.29 11245.4 16595.9 
451 0.7576 0.7576 0 0.00218598 0.00218598 -1.33487e-05 305.048 10418.8 14825.3 
491 0.8696 0.8696 0 0.00193555 0.00193555 -6.6905e-05 349.575 12277.4 15491.2 
531 0.9376 0.9376 0 0.00222301 0.00222301 7.17467e-05 371.494 14035.1 18650.3 
571 0.8906 0.8906 0 0.00179345 0.00179345 -0.000285225 349.114 9909.93 15160.9 
611 0.8308 0.8308 0 0.00324499 0.00324499 0.000361215 330.299 10995.9 15191.5 
651 0.0612 0.0612 0 -0.00218309 -0.00218309 -5.60725e-05 48.0948 1130.95 1804.43 
691 0.2248 0.2248 0 -0.00879194 -0.00879194 -0.00022882 87.9194 1888.14 2387.37 
731 0.2424 0.2424 0 -0.00935925 -0.00935925 9.95691e-05 93.5925 1501.76 2762.79 
771 0.2574 0.2574 0 -0.0101409 -0.0101409 0.00024665 101.409 3124.24 4064.02 
811 0.2564 0.2564 0 -0.0101269 -0.0101269 -6.38411e-05 101.269 2555.34 3607.35 
851 0.2388 0.2388 0 -0.00959243 -0.00959243 0.000177186 95.9243 3115.86 3602.83 
891 0.2248 0.2248 0 -0.00876097 -0.00876097 -3.81933e-05 87.6097 1778.91 1952.75 
931 0.1938 0.1938 0 -0.00760677 -0.00760677 -8.53878e-05 76.0677 2180.21 2328.78 
971 0.6888 0.6888 0 0.00425507 0.00425507 -0.000368587 275.217 11726.3 14665.5 
1011 0.9096 0.9096 0 0.00200446 0.00200446 2.29032e-05 363.305 12546.5 16515.8 
1051 0.907 0.907 0 0.0023446 0.0023446 -8.87752e-05 362.369 11519.8 15842.9 
1091 0.8618 0.8618 0 0.00210404 0.00210404 0.000354809 347.077 9877.1 13883.3 
1131 0.8018 0.8018 0 0.00212989 0.00212989 -0.000540296 316.429 10043.1 13515.5 
1171 0.7172 0.7172 0 0.00283476 0.00283476 -4.19453e-05 288.401 10419.6 15168.6 
1211 0.6162 0.6162 0 0.00349886 0.00349886 0.000145044 248.811 9661.67 11632.1 
12 0.7274 0.7274 0 0.0238109 0.0238109 7.42565e-05 611.534 62764.4 79309.5 
52 9.398 9.398 0 0.385595 0.385595 -0.00127015 3855.95 225781 322621 
92 10.4692 10.4692 0 0.424694 0.424694 -4.65565e-06 4246.94 194863 289945 
132 10.9254 10.9254 0 0.441663 0.441663 3.32981e-05 4416.63 195166 280822 
172 10.9002 10.9002 0 0.440702 0.440702 -0.0006602 4407.02 183241 264030 
212 10.7778 10.7778 0 0.433933 0.433933 0.000413993 4339.33 184699 277814 
252 10.4474 10.4474 0 0.424615 0.424615 0.00144913 4246.15 191875 275760 
292 9.5088 9.5088 0 0.390874 0.390874 0.000790183 3908.74 217124 308292 
332 0.8944 0.8944 0 0.030318 0.030318 -0.000329307 743.829 76450.5 96947.9 
372 0.5824 0.5824 0 0.00381139 0.00381139 -0.000129881 238.009 13751.1 17591.9 
412 0.6958 0.6958 0 0.00249868 0.00249868 -0.000317781 277.267 9953.84 12653.1 
452 0.8006 0.8006 0 0.00252448 0.00252448 0.000240436 319.502 11479.6 14171.1 
492 0.8642 0.8642 0 0.0022132 0.0022132 -0.000204163 342.257 11044.2 15362.8 
532 0.8978 0.8978 0 0.00240296 0.00240296 0.000292017 355.319 10804.8 13901.6 
572 0.9224 0.9224 0 0.00225769 0.00225769 0.000559882 365.389 12552.9 16190.7 
612 0.7728 0.7728 0 0.00243409 0.00243409 8.35631e-05 309.24 11110.2 14539.4 
652 0.0522 0.0522 0 -0.00185211 -0.00185211 -0.000134002 40.0927 2169.69 3082.14 
692 0.2356 0.2356 0 -0.00913564 -0.00913564 5.47059e-05 91.3564 466.593 873.773 
732 0.2382 0.2382 0 -0.00922909 -0.00922909 -2.43523e-05 92.2909 1950.16 2583.67 
772 0.2414 0.2414 0 -0.00940272 -0.00940272 -0.000107704 94.0272 2709.07 4973.27 
812 0.2514 0.2514 0 -0.0101448 -0.0101448 0.000226216 101.448 2359.1 3962.99 
852 0.2348 0.2348 0 -0.00907635 -0.00907635 -1.4045e-05 90.7635 2100.18 3052.68 
892 0.232 0.232 0 -0.00903297 -0.00903297 9.85215e-05 90.3297 1475.24 2316.56 
932 0.1904 0.1904 0 -0.00751252 -0.00751252 -0.000129919 75.1252 1681.06 2196.26 
972 0.6756 0.6756 0 0.0034072 0.0034072 0.000248122 271.578 9420.1 13358.6 
1012 0.8942 0.8942 0 0.00199027 0.00199027 0.000484042 357.185 11905.6 16522 
1052 0.8842 0.8842 0 0.00239673 0.00239673 0.000449687 350.475 13112 17263.8 
1092 0.8812 0.8812 0 0.00223318 0.00223318 -0.000346116 348.875 11544.7 15358.8 
1132 0.7958 0.7958 0 0.00218472 0.00218472 0.000174997 312.786 9959.87 14654.1 
1172 0.697 0.697 0 0.00220408 0.00220408 1.56878e-06 278.406 11496.1 16004.3 
1212 0.5954 0.5954 0 0.00346848 0.00346848 0.000102931 238.347 10548.1 14162.3 
13 0.9328 0.9328 0 0.0317848 0.0317848 -0.000392698 775.476 76470.3 100012 
53 9.419 9.419 0 0.386727 0.386727 0.00136179 3867.27 223268 315135 
93 10.5038 10.5038 0 0.426893 0.426893 -0.000196344 4268.93 198630 288412 