ITEM: TIMESTEP
25000
ITEM: NUMBER OF SURFS
1260
ITEM: BOX BOUNDS oo rr pp
0 0.3
0 0.3
-0.5 0.5
ITEM: SURFS id f_4[1] f_4[2] f_4[3] f_4[4] f_4[5] f_4[6] f_4[7] f_4[8] f_4[9] 
1 0.0072 0.0072 0 1.1102e-05 1.1102e-05 9.41142e-09 23.9994 3485.53 5597.35 
41 9.1318 9.1318 0 0.0386361 0.0386361 0.000109472 385.33 30647.3 41868.9 
81 10.2614 10.2614 0 0.0426941 0.0426941 -0.000107539 425.802 27103.6 37682.6 
121 10.6072 10.6072 0 0.0437419 0.0437419 2.96955e-06 436.251 26973 36808 
161 10.791 10.791 0 0.0445423 0.0445423 -0.000105338 444.235 25528.1 35390 
201 10.6022 10.6022 0 0.0438005 0.0438005 1.86152e-05 436.836 26654 36792.7 
241 10.3582 10.3582 0 0.0430287 0.0430287 1.50383e-05 429.139 27548.5 37589.6 
281 9.5732 9.5732 0 0.0402816 0.0402816 5.31297e-05 401.741 29544 40690.5 
321 0.0244 0.0244 0 0.000113882 0.000113882 -3.81905e-06 112.265 18922.7 21434.2 
361 0.6112 0.6112 0 0.000843692 0.000843692 -1.42954e-05 26.6464 4668.26 6125.98 
401 0.7434 0.7434 0 0.000750241 0.000750241 4.18279e-05 32.4955 5219.86 7006.07 
441 0.8192 0.8192 0 0.000675104 0.000675104 -2.33476e-05 36.4278 4932.03 6681.58 
481 0.8592 0.8592 0 0.000690225 0.000690225 -1.5451e-05 38.2874 5260.44 7211.33 
521 0.903 0.903 0 0.000606527 0.000606527 -4.26252e-05 39.259 4838.59 6668.85 
561 0.9184 0.9184 0 0.00067135 0.00067135 -4.30365e-05 40.2866 4773.66 6311.38 
601 0.8486 0.8486 0 0.00072502 0.00072502 -2.2797e-05 37.1926 4681.49 6495.75 
641 0.0014 0.0014 0 -3.47605e-06 -3.47605e-06 3.69695e-07 5.79734 177.979 1620.41 
681 0.113 0.113 0 -0.000464807 -0.000464807 1.02369e-05 4.63567 430.722 630.512 
721 0.1694 0.1694 0 -0.000716751 -0.000716751 -1.0024e-05 7.14838 420.862 623.361 
761 0.2006 0.2006 0 -0.000842743 -0.000842743 -5.5488e-06 8.40494 524.374 908.578 
801 0.2294 0.2294 0 -0.000982008 -0.000982008 -2.05959e-05 9.79388 792.649 1156.8 
841 0.2052 0.2052 0 -0.000857298 -0.000857298 3.02836e-06 8.5501 764.223 1040.61 
881 0.1716 0.1716 0 -0.000709165 -0.000709165 -4.05447e-06 7.07273 511.76 697.424 
921 0.0922 0.0922 0 -0.000363925 -0.000363925 -2.02456e-06 3.62954 227.564 348.567 
961 0.0056 0.0056 0 7.26871e-06 7.26871e-06 -1.01173e-07 23.0641 3729.57 5279.06 
1001 0.844 0.844 0 0.000656417 0.000656417 3.10997e-05 37.0638 4231.83 5771.72 
1041 0.89 0.89 0 0.000606931 0.000606931 -2.01943e-05 38.6584 4644.65 6327.91 
1081 0.9066 0.9066 0 0.000659094 0.000659094 1.70987e-05 39.7858 4947.76 6924.07 
1121 0.8584 0.8584 0 0.000658954 0.000658954 -2.90629e-05 38.1531 5306.47 7334.14 
1161 0.8376 0.8376 0 0.000726277 0.000726277 -1.91669e-06 36.9662 5285.14 7137.88 
1201 0.7072 0.7072 0 0.000774451 0.000774451 1.71632e-05 31.3133 5141.58 6922.92 
1241 0.5888 0.5888 0 0.000874719 0.000874719 4.763e-05 25.2714 4534.52 5940.95 
2 0.0062 0.0062 0 1.13487e-05 1.13487e-05 2.08737e-06 25.0516 3154.25 3334.56 
42 9.1522 9.1522 0 0.0386805 0.0386805 -0.000118202 385.773 29876.9 41155.5 
82 10.2198 10.2198 0 0.0424587 0.0424587 -9.13555e-05 423.454 26828.7 37695.8 
122 10.6064 10.6064 0 0.043771 0.043771 7.47242e-06 436.542 25973.3 35960.6 
162 10.7072 10.7072 0 0.0441637 0.0441637 6.04447e-05 440.458 25168 35007 
202 10.6828 10.6828 0 0.0441246 0.0441246 0.000303157 440.069 25849.1 36018.4 
242 10.3044 10.3044 0 0.0427321 0.0427321 0.00013303 426.181 26464.7 37210.1 
282 9.493 9.493 0 0.0399057 0.0399057 -5.05575e-05 397.992 28604.9 39491.8 
322 0.0238 0.0238 0 0.000107404 0.000107404 1.19669e-06 108.26 19783.8 27436.9 
362 0.5966 0.5966 0 0.000775899 0.000775899 -1.7874e-05 26.204 4531.17 5966.79 
402 0.7564 0.7564 0 0.000779082 0.000779082 -4.15048e-05 33.3899 5408.43 7255.01 
442 0.8478 0.8478 0 0.000727957 0.000727957 -4.62628e-06 37.6048 5565.74 7518.07 
482 0.8564 0.8564 0 0.000619984 0.000619984 -2.67471e-05 37.6681 5017.56 6890.29 
522 0.9128 0.9128 0 0.000689118 0.000689118 4.41461e-05 40.1514 5133.54 6898.74 
562 0.887 0.887 0 0.000603574 0.000603574 -1.10014e-05 38.69 4348.87 5971.6 
602 0.8452 0.8452 0 0.000648815 0.000648815 4.37338e-05 36.9776 4634.32 6153.63 
642 0.001 0.001 0 -2.27515e-06 -2.27515e-06 5.39148e-07 3.24579 1403.69 1838.19 
682 0.1176 0.1176 0 -0.000483091 -0.000483091 2.87381e-06 4.81802 490.279 641.293 
722 0.1948 0.1948 0 -0.000827407 -0.000827407 -6.60794e-06 8.25199 755.119 1034.26 
762 0.2062 0.2062 0 -0.000884024 -0.000884024 -9.70334e-06 8.81665 736.564 1082.54 
802 0.2038 0.2038 0 -0.00088486 -0.00088486 3.57182e-09 8.82499 733.14 1053.78 
842 0.1992 0.1992 0 -0.000867781 -0.000867781 9.6177e-06 8.65465 568.963 880.884 
882 0.1518 0.1518 0 -0.000636984 -0.000636984 1.87827e-05 6.35284 528.959 758.93 
922 0.0922 0.0922 0 -0.000360793 -0.000360793 -1.57815e-06 3.59831 217.837 358.144 
962 0.5822 0.5822 0 0.000931133 0.000931133 -3.35989e-05 26.5744 4568.54 5716.85 
1002 0.8666 0.8666 0 0.000680774 0.000680774 1.62703e-05 38.019 4836.2 6441.85 
1042 0.9096 0.9096 0 0.000611951 0.000611951 -1.74462e-05 39.9395 4642.67 6352.71 
1082 0.8848 0.8848 0 0.000652413 0.000652413 -8.7359e-07 38.8062 5067.95 6774.83 
1122 0.8632 0.8632 0 0.000661738 0.000661738 4.3739e-06 38.4966 5340.57 7363.48 
1162 0.803 0.803 0 0.000685111 0.000685111 5.62732e-06 35.4589 4901.02 6558.71 
1202 0.7526 0.7526 0 0.000809409 0.000809409 2.80172e-05 33.458 5461.1 7100.04 
1242 0.5666 0.5666 0 0.000822505 0.000822505 2.79079e-05 24.1763 4356.12 5972.63 
3 0.0078 0.0078 0 2.17208e-05 2.17208e-05 -2.7024e-06 27.1277 7180.15 7463.75 
43 9.264 9.264 0 0.0391751 0.0391751 5.8746e-05 390.706 30330.6 41915.6 
83 10.2474 10.2474 0 0.0426385 0.0426385 2.63278e-06 425.247 27313.3 37325.5 
123 10.6686 10.6686 0 0.0440738 0.0440738 4.10185e-05 439.562 25817.4 36063.5 
163 10.81 10.81 0 0.0445572 0.0445572 -6.05647e-06 444.383 25972.1 36360.8 
203 10.6514 10.6514 0 0.0440683 0.0440683 -7.77461e-05 439.507 25996.7 36018 
243 10.2858 10.2858 0 0.0428007 0.0428007 -0.00016494 426.865 27909.2 37826.9 
283 9.4456 9.4456 0 0.0398205 0.0398205 -3.94516e-05 397.142 30132.4 41469.7 
323 0.024 0.024 0 0.000104243 0.000104243 7.02938e-08 105.057 21135.7 27027.6 
363 0.6552 0.6552 0 0.000924116 0.000924116 2.91701e-05 28.8936 5223.54 6921.55 
403 0.7374 0.7374 0 0.00075576 0.00075576 6.56541e-05 32.7301 5065.07 6688.03 
443 0.8242 0.8242 0 0.000699251 0.000699251 2.07377e-05 36.6249 5284.41 7188.78 
483 0.8744 0.8744 0 0.000675303 0.000675303 2.90185e-05 38.112 4813.14 6542.83 
523 0.9014 0.9014 0 0.000630165 0.000630165 -2.98373e-05 39.4409 5093.9 7103.67 
563 0.908 0.908 0 0.000643226 0.000643226 -3.12281e-06 39.7806 4888.7 6501.55 
603 0.8424 0.8424 0 0.000618263 0.000618263 2.96217e-05 37.1187 4439.53 6201.28 
643 0.0006 0.0006 0 -1.96745e-06 -1.96745e-06 -1.92443e-07 2.00105 -376.903 -212.289 
683 0.1246 0.1246 0 -0.000510067 -0.000510067 -1.27045e-05 5.08706 429.609 653.432 
723 0.1842 0.1842 0 -0.000768165 -0.000768165 2.06983e-05 7.66116 547.591 758.886 
763 0.209 0.209 0 -0.000895192 -0.000895192 -3.49096e-05 8.92803 734.33 1067.07 
803 0.199 0.199 0 -0.000834441 -0.000834441 -3.15908e-05 8.32214 527.632 820.385 
843 0.1964 0.1964 0 -0.000821276 -0.000821276 -3.86211e-06 8.19084 640.024 958.814 
883 0.1546 0.1546 0 -0.00064497 -0.00064497 5.30041e-06 6.43249 564.317 847.355 
923 0.0944 0.0944 0 -0.000390341 -0.000390341 7.44069e-06 3.893 288.276 472.546 
963 0.6 0.6 0 0.000870153 0.000870153 -2.56237e-06 26.9057 4336.91 5604.2 
1003 0.8728 0.8728 0 0.000675332 0.000675332 -6.87612e-05 37.6092 4416.14 6088.13 
1043 0.91 0.91 0 0.000578958 0.000578958 -3.31633e-05 39.9949 4883.74 6879.4 
1083 0.9024 0.9024 0 0.000622763 0.000622763 -2.26881e-05 39.4052 4900.4 6554.27 
1123 0.8812 0.8812 0 0.000691838 0.000691838 4.49887e-06 38.5966 5357.02 7354.35 
1163 0.8148 0.8148 0 0.000759561 0.000759561 8.12567e-05 36.5088 5540.47 7447.56 
1203 0.7232 0.7232 0 0.00076591 0.00076591 -1.97165e-05 31.966 4840.44 6616.79 
1243 0.5754 0.5754 0 0.000850069 0.000850069 9.61506e-06 24.1204 4354.79 5878.66 
4 0.0076 0.0076 0 2.16598e-05 2.16598e-05 -1.96581e-07 33.1089 5207.97 7254.27 
44 9.3134 9.3134 0 0.0394191 0.0394191 6.35732e-05 393.139 30393 41897.5 
84 10.2062 10.2062 0 0.0424817 0.0424817 1.11229e-05 423.684 28243.2 38364.3 
124 10.6236 10.6236 0 0.0439745 0.0439745 -7.01511e-06 438.571 26179 36172.8 
164 10.6824 10.6824 0 0.0439846 0.0439846 -0.000127802 438.673 25315.6 35098.9 
204 10.638 10.638 0 0.0439958 0.0439958 4.23446e-05 438.784 26057.1 36206.2 
244 10.331 10.331 0 0.0429808 0.0429808 -5.1964e-05 428.661 27341.7 37868.8 
284 9.4318 9.4318 0 0.0398181 0.0398181 5.4082e-05 397.118 30700.4 42207.7 
324 0.0138 0.0138 0 4.79779e-05 4.79779e-05 -2.7689e-06 56.1148 7534.35 11031.8 
364 0.6298 0.6298 0 0.000811263 0.000811263 4.05305e-06 27.699 4665.44 6248.91 
404 0.7688 0.7688 0 0.000788296 0.000788296 -2.90913e-05 34.0663 5318.04 7080.4 
444 0.8426 0.8426 0 0.00074371 0.00074371 -5.46814e-05 37.2113 5484.63 7451.1 
484 0.8668 0.8668 0 0.000721741 0.000721741 -9.27942e-05 38.464 5153.38 6999.55 
524 0.9026 0.9026 0 0.000662442 0.000662442 -1.40852e-05 39.5038 4702.9 6659.75 
564 0.8906 0.8906 0 0.000621168 0.000621168 3.73404e-06 38.7321 4505.46 6513.56 
604 0.8546 0.8546 0 0.000698702 0.000698702 -4.17465e-05 36.948 4324.61 6005.15 
644 0.0006 0.0006 0 -2.19745e-06 -2.19745e-06 -2.55706e-07 2.64334 -301.934 -248.226 
684 0.1196 0.1196 0 -0.00049843 -0.00049843 -1.40259e-06 4.971 270.34 452.991 
724 0.1712 0.1712 0 -0.00073902 -0.00073902 -5.56075e-07 7.37048 597.977 862.165 
764 0.2134 0.2134 0 -0.000925785 -0.000925785 -4.30088e-06 9.23315 576.19 913.574 
804 0.2158 0.2158 0 -0.000923102 -0.000923102 -9.59231e-06 9.20638 833.968 1160.51 
844 0.206 0.206 0 -0.000887079 -0.000887079 -1.27945e-05 8.84712 790.218 1133.13 
884 0.1612 0.1612 0 -0.000681473 -0.000681473 -1.10829e-06 6.79655 437.274 680.791 
924 0.0972 0.0972 0 -0.000378913 -0.000378913 1.74162e-05 3.77902 284.439 438.913 
964 0.6086 0.6086 0 0.000853532 0.000853532 -1.65891e-05 27.389 4202.26 5505.53 
1004 0.9024 0.9024 0 0.0006924 0.0006924 2.15131e-05 39.1281 4547.37 6503.55 
1044 0.9094 0.9094 0 0.000642959 0.000642959 -1.83209e-06 39.421 4889.76 6493.01 
1084 0.9116 0.9116 0 0.000660169 0.000660169 3.60167e-08 40.1571 5139.25 7100.23 
1124 0.8742 0.8742 0 0.000703251 0.000703251 7.46129e-06 38.9961 5314.88 7324.74 
1164 0.788 0.788 0 0.000733703 0.000733703 4.10482e-05 35.1043 5315.92 7022.83 
1204 0.7408 0.7408 0 0.000833092 0.000833092 4.70441e-05 32.8134 5252.05 6806.98 
1244 0.569 0.569 0 0.000861054 0.000861054 -2.10071e-05 24.2237 4297.4 5857.17 
5 0.0118 0.0118 0 4.279e-05 4.279e-05 2.02589e-06 49.9805 12007.3 19285.4 
45 9.2838 9.2838 0 0.0390391 0.0390391 -8.02387e-05 389.35 28918.3 40404.7 
85 10.1978 10.1978 0 0.0424352 0.0424352 3.20401e-05 423.22 26542.4 37250.3 
125 10.6314 10.6314 0 0.0440476 0.0440476 5.41596e-05 439.301 27439.8 37673.2 
165 10.7178 10.7178 0 0.0442585 0.0442585 -3.99001e-05 441.404 26102.9 35742.6 
205 10.6356 10.6356 0 0.0439615 0.0439615 -4.79638e-05 438.442 25951.8 36208.6 
245 10.3384 10.3384 0 0.0428391 0.0428391 -9.59675e-05 427.248 26570.3 36905.1 
285 9.3848 9.3848 0 0.0396136 0.0396136 2.92636e-05 395.079 30070.2 41357.3 
325 0.0154 0.0154 0 5.3727e-05 5.3727e-05 -8.55865e-07 60.0376 10944.4 13771.1 
365 0.63 0.63 0 0.000774309 0.000774309 -2.44246e-05 27.5068 4591.48 6083.49 
405 0.7498 0.7498 0 0.00074924 0.00074924 -7.42244e-06 33.1097 4926.34 6589.53 
445 0.8214 0.8214 0 0.000685907 0.000685907 -1.48901e-05 36.5201 4808.07 6763.89 
485 0.8698 0.8698 0 0.000647446 0.000647446 -1.8604e-05 38.2935 5343.78 7273.28 
525 0.9026 0.9026 0 0.000607015 0.000607015 -2.57294e-05 39.7721 5080.06 6899.52 
565 0.902 0.902 0 0.00064737 0.00064737 -5.12547e-05 39.1311 4526.17 6180.75 
605 0.8432 0.8432 0 0.000727605 0.000727605 1.11385e-05 36.8418 4580.08 6236.65 
645 0.0006 0.0006 0 -1.09911e-06 -1.09911e-06 -1.81294e-07 1.10379 -47.731 -143.309 
685 0.117 0.117 0 -0.00048791 -0.00048791 -3.60733e-06 4.86608 369.168 594.67 
725 0.1728 0.1728 0 -0.000743245 -0.000743245 1.66387e-05 7.41261 579.277 866.21 
765 0.2078 0.2078 0 -0.000885463 -0.000885463 -9.56323e-06 8.831 668.648 1049.29 
805 0.2134 0.2134 0 -0.000924602 -0.000924602 -1.73012e-05 9.22134 767.19 1098.06 
845 0.1904 0.1904 0 -0.000801775 -0.000801775 -2.44727e-07 7.99635 615.025 913.16 
885 0.1596 0.1596 0 -0.000684538 -0.000684538 -6.03151e-06 6.82712 537.939 825.395 
925 0.0928 0.0928 0 -0.000371281 -0.000371281 3.1946e-06 3.7029 202.026 351.531 
965 0.6456 0.6456 0 0.000883105 0.000883105 1.6903e-05 28.8498 4380.71 5774.28 
1005 0.8958 0.8958 0 0.000641893 0.000641893 -9.67595e-06 39.072 4745.32 6422.62 
1045 0.9098 0.9098 0 0.000672037 0.000672037 1.8926e-05 39.6553 4865.66 6772.55 
1085 0.8766 0.8766 0 0.000636691 0.000636691 2.62862e-05 38.6827 4874.73 6734.46 
1125 0.8698 0.8698 0 0.000680319 0.000680319 2.76727e-06 38.7323 5283.6 7301.69 
1165 0.799 0.799 0 0.000850698 0.000850698 6.57514e-06 35.519 5367 7378.07 
1205 0.6918 0.6918 0 0.000764555 0.000764555 6.69077e-06 30.8719 5039.96 6565.01 
1245 0.5496 0.5496 0 0.000822701 0.000822701 2.99662e-05 23.2744 3926.06 5386.92 
6 0.0132 0.0132 0 4.75609e-05 4.75609e-05 4.24289e-06 53.5341 9069.04 12655.9 
46 9.458 9.458 0 0.0398151 0.0398151 -7.59099e-06 397.089 29778.5 41475.2 
86 10.309 10.309 0 0.0429331 0.0429331 -8.06424e-05 428.185 26346.7 36763.7 
126 10.5488 10.5488 0 0.0437162 0.0437162 7.86658e-05 435.995 25605.6 35586.5 
166 10.783 10.783 0 0.0445509 0.0445509 8.36532e-05 444.32 25875.3 35662.5 
206 10.6264 10.6264 0 0.0437972 0.0437972 -0.00010559 436.803 25886 36166.8 
246 10.2948 10.2948 0 0.0427231 0.0427231 -0.000112585 426.091 26749 37163.7 
286 9.3854 9.3854 0 0.0396458 0.0396458 -0.000135943 395.4 30659.9 41542.4 
326 0.0124 0.0124 0 4.29023e-05 4.29023e-05 2.02432e-06 47.8504 7088.99 9823.2 
366 0.6376 0.6376 0 0.000868514 0.000868514 -1.43527e-05 28.3493 4798.68 6478.52 
406 0.7464 0.7464 0 0.000694317 0.000694317 -5.31326e-05 33.4376 5049.03 6638.47 
446 0.8306 0.8306 0 0.000662449 0.000662449 9.62948e-06 36.6033 4911.92 6652.26 
486 0.882 0.882 0 0.000704379 0.000704379 -1.84532e-05 39.0474 5232.16 7242.91 
526 0.9128 0.9128 0 0.00067409 0.00067409 1.64034e-06 39.7404 5084.09 6858.86 
566 0.9082 0.9082 0 0.000619703 0.000619703 -1.40455e-06 40.0883 4875.65 6631.5 
606 0.828 0.828 0 0.000692008 0.000692008 -1.93977e-05 35.9152 4202.33 5720.4 
646 0.0004 0.0004 0 -1.09311e-06 -1.09311e-06 -2.66348e-07 1.12679 -286.233 -207.114 
686 0.1296 0.1296 0 -0.000538799 -0.000538799 -6.02367e-06 5.37362 436.273 651.73 
726 0.1774 0.1774 0 -0.000749558 -0.000749558 -2.40614e-05 7.47558 659.9 924.246 
766 0.202 0.202 0 -0.000885142 -0.000885142 3.79628e-06 8.8278 688.649 872.247 
806 0.2216 0.2216 0 -0.000971779 -0.000971779 -1.03319e-05 9.69186 931.865 1244.29 
846 0.2092 0.2092 0 -0.000895506 -0.000895506 6.75826e-07 8.93116 676.865 983.646 
886 0.1602 0.1602 0 -0.000660203 -0.000660203 -3.66436e-06 6.58441 450.133 723.041 
926 0.0964 0.0964 0 -0.000373375 -0.000373375 -2.63644e-05 3.72379 266.244 389.925 
966 0.6496 0.6496 0 0.000831379 0.000831379 1.56398e-05 28.8902 4473.19 5687.75 
1006 0.8592 0.8592 0 0.000669517 0.000669517 -4.35818e-06 37.9162 4506.13 6404.86 
1046 0.9102 0.9102 0 0.000601935 0.000601935 4.70785e-06 39.3253 4603.22 6334.75 
1086 0.8928 0.8928 0 0.000633544 0.000633544 -2.05335e-05 39.3522 5081.96 7084.99 
1126 0.8464 0.8464 0 0.000708883 0.000708883 -1.22427e-05 37.6559 5120.76 6863.79 
1166 0.8144 0.8144 0 0.000711433 0.000711433 5.25288e-05 36.0492 5495.08 7419.57 
1206 0.686 0.686 0 0.000767415 0.000767415 -2.9509e-05 30.6574 4963.64 6548.97 
1246 0.559 0.559 0 0.000838441 0.000838441 -1.83536e-06 23.6194 4067.87 5644.62 
7 0.0182 0.0182 0 7.39584e-05 7.39584e-05 3.88793e-06 79.7986 11874.4 17122.9 
47 9.4342 9.4342 0 0.039782 0.039782 3.77783e-05 396.758 28798.9 39929.7 
87 10.2564 10.2564 0 0.0426239 0.0426239 6.95714e-05 425.101 27752 37992.8 
127 10.599 10.599 0 0.0438997 0.0438997 -4.15874e-05 437.825 25800.5 35678.9 
167 10.7612 10.7612 0 0.0442161 0.0442161 -4.43567e-05 440.981 26039.7 36335.6 
207 10.5432 10.5432 0 0.043542 0.043542 -0.000200607 434.258 25704.9 35446.7 
247 10.2794 10.2794 0 0.0426142 0.0426142 5.51745e-05 425.005 26316.1 37123.1 
287 9.3176 9.3176 0 0.0392778 0.0392778 -3.92441e-05 391.73 29890.9 41383.2 
327 0.0104 0.0104 0 3.41031e-05 3.41031e-05 3.07387e-06 44.9326 7929.87 10629.3 
367 0.6432 0.6432 0 0.000792316 0.000792316 -9.45845e-06 28.3031 4736.19 6312.07 
407 0.7718 0.7718 0 0.000751471 0.000751471 -1.80495e-05 34.3912 5248.67 7174.18 
447 0.8532 0.8532 0 0.000722781 0.000722781 4.48357e-05 37.8588 5350.73 7183.29 
487 0.8902 0.8902 0 0.000738282 0.000738282 3.63993e-05 39.3354 5137.04 6780.35 
527 0.903 0.903 0 0.000670439 0.000670439 3.93055e-05 39.7816 4867.37 6834.33 
567 0.8896 0.8896 0 0.000604345 0.000604345 -1.94867e-05 38.868 4625.37 6448.53 
607 0.8132 0.8132 0 0.000704749 0.000704749 -3.97593e-05 35.5407 4221.09 5839.51 
647 0.0518 0.0518 0 -0.000177773 -0.000177773 -1.42576e-06 1.77299 149.806 245.064 
687 0.1298 0.1298 0 -0.000521899 -0.000521899 1.1416e-05 5.20506 375.772 556.111 
727 0.1872 0.1872 0 -0.000792065 -0.000792065 2.40859e-05 7.89951 570.643 819.799 
767 0.2086 0.2086 0 -0.000898248 -0.000898248 -1.19453e-05 8.95851 703.136 1017.44 
807 0.2142 0.2142 0 -0.000921938 -0.000921938 -1.9234e-05 9.19478 897.413 1208.34 
847 0.1898 0.1898 0 -0.000827954 -0.000827954 -6.79312e-06 8.25745 703.273 942.999 
887 0.15 0.15 0 -0.00062719 -0.00062719 -1.09154e-05 6.25516 408.402 636.538 
927 0.0826 0.0826 0 -0.000323373 -0.000323373 -2.57633e-05 3.2251 274.598 377.443 
967 0.6868 0.6868 0 0.000869777 0.000869777 -1.91896e-05 30.286 4451.37 5790.39 
1007 0.8798 0.8798 0 0.000639445 0.000639445 3.96757e-05 38.5772 4507.02 6203.49 
1047 0.908 0.908 0 0.000612012 0.000612012 -3.51176e-05 40.1034 4527.59 6305.11 
1087 0.8938 0.8938 0 0.000709 0.000709 -1.22407e-05 39.1686 4892.23 6826.58 
1127 0.8642 0.8642 0 0.000679776 0.000679776 4.76554e-06 38.1793 5162.27 7004.21 
1167 0.8156 0.8156 0 0.000780216 0.000780216 5.99595e-07 36.1817 5291.26 7139.69 
1207 0.7072 0.7072 0 0.000812705 0.000812705 2.659e-06 31.672 5154.39 6857.95 
1247 0.5436 0.5436 0 0.000820516 0.000820516 -3.80054e-05 22.9827 3724.5 5274.78 
8 0.0192 0.0192 0 8.07986e-05 8.07986e-05 1.72228e-06 90.9739 10199.5 13054 
48 9.4428 9.4428 0 0.0395338 0.0395338 -3.73562e-05 394.283 29437.1 40746.7 
88 10.281 10.281 0 0.0427413 0.0427413 -7.85313e-05 426.272 27173.5 37976 
128 10.681 10.681 0 0.044186 0.044186 3.03802e-05 440.681 26272.7 36703.1 
168 10.7374 10.7374 0 0.0443527 0.0443527 8.2744e-05 442.344 25560.9 35579.5 
208 10.6636 10.6636 0 0.0440664 0.0440664 -5.61779e-05 439.488 25566.3 35681.3 
248 10.357 10.357 0 0.0430772 0.0430772 -2.86578e-05 429.623 27888.3 38293.8 
288 9.2392 9.2392 0 0.0390422 0.0390422 1.63364e-05 389.381 29969 41651.6 
328 0.0136 0.0136 0 4.24109e-05 4.24109e-05 1.92578e-06 51.494 9044.32 14851.3 
368 0.6496 0.6496 0 0.00082772 0.00082772 8.29328e-06 28.3132 4911.7 6487.73 
408 0.7724 0.7724 0 0.000783368 0.000783368 1.85195e-05 34.2942 4952.38 6948.19 
448 0.8592 0.8592 0 0.000734409 0.000734409 -2.23209e-05 37.7038 5089 6841.57 
488 0.872 0.872 0 0.000615262 0.000615262 -3.75333e-05 38.2158 5154.06 7052.45 
528 0.9196 0.9196 0 0.000621886 0.000621886 -2.80798e-06 40.5974 4764.98 6607.57 
568 0.8958 0.8958 0 0.000650255 0.000650255 1.75355e-06 39.4287 4742.01 6446.42 
608 0.8266 0.8266 0 0.000702147 0.000702147 -2.09237e-05 35.9098 4102.97 5807.71 
648 0.051 0.051 0 -0.000173499 -0.000173499 -1.68843e-06 1.73036 98.3773 145.915 
688 0.1354 0.1354 0 -0.000558962 -0.000558962 -2.01524e-05 5.5747 403.305 683.416 
728 0.1748 0.1748 0 -0.000749173 -0.000749173 -5.00511e-06 7.47174 594.755 881.392 
768 0.2164 0.2164 0 -0.000931198 -0.000931198 1.6116e-05 9.28713 917.468 1243.7 
808 0.2104 0.2104 0 -0.000886425 -0.000886425 -1.60239e-05 8.8406 551.693 846.547 
848 0.1932 0.1932 0 -0.000828228 -0.000828228 -3.54217e-06 8.26018 522.095 798.979 
888 0.15 0.15 0 -0.000619789 -0.000619789 -2.37508e-06 6.18135 556.777 809.77 
928 0.0814 0.0814 0 -0.000327383 -0.000327383 1.33832e-05 3.26509 260.862 462.293 
968 0.708 0.708 0 0.000896032 0.000896032 -2.00454e-05 31.26 4707.2 6162.1 
1008 0.8748 0.8748 0 0.000622964 0.000622964 4.01534e-05 38.015 4346.25 6062.96 
1048 0.9202 0.9202 0 0.000697949 0.000697949 2.62193e-05 40.3526 4711.62 6605.31 
1088 0.9126 0.9126 0 0.00060402 0.00060402 -3.63186e-05 39.5754 4518.13 6411.67 
1128 0.8592 0.8592 0 0.000669711 0.000669711 -2.89945e-05 38.1999 5176.01 7025.55 
1168 0.8052 0.8052 0 0.00077044 0.00077044 4.02799e-05 35.3864 5360.78 7023.51 
1208 0.699 0.699 0 0.000777602 0.000777602 6.59159e-05 31.089 5178.79 6764.88 
1248 0.5458 0.5458 0 0.000835607 0.000835607 2.1261e-05 22.9904 4044.58 5503.66 
9 0.0202 0.0202 0 8.85742e-05 8.85742e-05 3.41227e-06 92.3002 16819.6 26990.1 
49 9.4998 9.4998 0 0.039901 0.039901 4.9873e-05 397.945 28924.8 40242.3 
89 10.3416 10.3416 0 0.04304 0.04304 5.13004e-05 429.252 26714.2 36849.3 
129 10.616 10.616 0 0.0439392 0.0439392 0.000116171 438.22 25812.2 35918 
169 10.7924 10.7924 0 0.0445805 0.0445805 1.79241e-05 444.616 25428.8 35243.3 
209 10.5982 10.5982 0 0.0438504 0.0438504 -9.97376e-05 437.334 26268.4 36031.5 
249 10.1916 10.1916 0 0.0423125 0.0423125 -1.99141e-05 421.996 27338.4 37437.6 
289 9.3142 9.3142 0 0.039291 0.039291 0.0001838 391.862 30360.9 42074.8 
329 0.0092 0.0092 0 2.40393e-05 2.40393e-05 1.54495e-06 34.8579 4296.75 8019.65 
369 0.6308 0.6308 0 0.000839868 0.000839868 2.2682e-06 27.7436 4898.91 6536.6 
409 0.765 0.765 0 0.000747288 0.000747288 -7.29737e-06 34.0638 5232.84 7148.22 
449 0.8272 0.8272 0 0.000642946 0.000642946 -4.60024e-05 36.6637 5099.13 6932.37 
489 0.9052 0.9052 0 0.000705724 0.000705724 -2.58384e-05 39.9559 5512.18 7616.68 
529 0.8966 0.8966 0 0.000653507 0.000653507 3.10096e-05 39.412 4952.77 6733.52 
569 0.8852 0.8852 0 0.000556084 0.000556084 3.22365e-05 38.8027 4685.31 6261.85 
609 0.808 0.808 0 0.000755127 0.000755127 1.36346e-05 35.2796 4280.79 5960.61 
649 0.0504 0.0504 0 -0.000186173 -0.000186173 1.22884e-06 1.85676 175.948 306.015 
689 0.1302 0.1302 0 -0.000526336 -0.000526336 -1.00622e-05 5.24931 477.194 689.199 
729 0.1776 0.1776 0 -0.000736092 -0.000736092 -7.68258e-06 7.34128 595.852 852.145 
769 0.203 0.203 0 -0.000881443 -0.000881443 1.52169e-06 8.79091 619.206 955.009 
809 0.2196 0.2196 0 -0.000950322 -0.000950322 -5.2869e-06 9.47786 880.345 1198.11 
849 0.194 0.194 0 -0.000824411 -0.000824411 1.92122e-05 8.22211 749.92 1063.85 
889 0.1484 0.1484 0 -0.000624607 -0.000624607 -8.69371e-06 6.2294 479.112 671.956 
929 0.081 0.081 0 -0.000304647 -0.000304647 -1.94434e-06 3.03834 258.727 437.406 
969 0.7128 0.7128 0 0.000835652 0.000835652 -2.20983e-05 31.7583 4607.73 6118.33 
1009 0.9192 0.9192 0 0.000637517 0.000637517 -4.84472e-05 40.5776 4725.81 6462.32 
1049 0.8988 0.8988 0 0.000638704 0.000638704 -2.32016e-05 39.2996 5030.29 6802.71 
1089 0.868 0.868 0 0.000611124 0.000611124 8.78683e-06 38.4743 4713.36 6391.92 
1129 0.832 0.832 0 0.000705458 0.000705458 2.90043e-05 37.1279 5101.94 6906.85 
1169 0.7962 0.7962 0 0.000719463 0.000719463 4.70531e-05 35.7641 5118.37 6938.7 
1209 0.703 0.703 0 0.000795718 0.000795718 2.27067e-05 31.3616 5243.76 6857.33 
1249 0.5354 0.5354 0 0.000837285 0.000837285 -8.2882e-06 21.9856 3806.81 5374.02 
10 0.0248 0.0248 0 0.000116463 0.000116463 1.01451e-06 119.837 21691.4 26623.1 
50 9.4536 9.4536 0 0.0397095 0.0397095 0.000106085 396.036 29060.9 40278.1 
90 10.3556 10.3556 0 0.0428774 0.0428774 -9.2308e-05 427.63 27224.9 37632.6 
130 10.6252 10.6252 0 0.0439466 0.0439466 4.24794e-05 438.294 26492 36924.9 
170 10.6462 10.6462 0 0.0438862 0.0438862 0.000114715 437.691 25957.6 35532.1 
210 10.6268 10.6268 0 0.0438221 0.0438221 -5.40927e-05 437.051 26365 36243.6 
250 10.2216 10.2216 0 0.0424697 0.0424697 3.1964e-05 423.564 26866.4 37913.3 
290 9.2724 9.2724 0 0.039102 0.039102 -0.000143595 389.976 31029.5 42823.5 
330 0.0054 0.0054 0 1.32754e-05 1.32754e-05 -6.7892e-07 22.271 4663.13 6948.86 
370 0.6398 0.6398 0 0.000815971 0.000815971 -2.98034e-05 28.3667 4689.6 6117.68 
410 0.7648 0.7648 0 0.000741839 0.000741839 1.86461e-05 33.9394 5324.47 7119.7 
450 0.8588 0.8588 0 0.000726255 0.000726255 -1.27281e-05 37.6761 5040.73 6889.58 
490 0.8626 0.8626 0 0.00067268 0.00067268 -4.24562e-05 38.2379 4990.67 6594.83 
530 0.9152 0.9152 0 0.000654178 0.000654178 1.7864e-05 39.8554 5092 6785.2 
570 0.8968 0.8968 0 0.000675455 0.000675455 6.39718e-07 39.0164 4517.9 6433.74 
610 0.788 0.788 0 0.000736963 0.000736963 -2.42034e-05 34.3121 4211.73 5892.45 
650 0.0592 0.0592 0 -0.000220835 -0.000220835 -1.93359e-06 2.20246 122.326 242.186 
690 0.1434 0.1434 0 -0.000581769 -0.000581769 4.42092e-06 5.80217 398.129 702.985 
730 0.1988 0.1988 0 -0.00084061 -0.00084061 5.5658e-06 8.38367 620.086 923.406 
770 0.2086 0.2086 0 -0.000902159 -0.000902159 -1.07426e-05 8.99752 821.737 1192.18 
810 0.2154 0.2154 0 -0.000918668 -0.000918668 2.8561e-05 9.16217 814.856 1173.9 
850 0.1894 0.1894 0 -0.000795218 -0.000795218 1.79719e-05 7.93096 564.326 841.594 
890 0.1354 0.1354 0 -0.000560988 -0.000560988 7.32785e-06 5.59491 527.705 694.675 
930 0.0802 0.0802 0 -0.000310172 -0.000310172 8.37605e-06 3.09344 253.382 403.187 
970 0.6806 0.6806 0 0.000786624 0.000786624 1.02313e-05 30.0242 4533.28 5819.7 
1010 0.8834 0.8834 0 0.00062713 0.00062713 -2.8482e-05 38.3621 4227.19 5877.91 
1050 0.8874 0.8874 0 0.000695222 0.000695222 -5.30615e-05 39.0692 4734.34 6625.24 
1090 0.9288 0.9288 0 0.000635001 0.000635001 -1.9075e-05 40.3376 4990.61 6747.43 
1130 0.853 0.853 0 0.000675395 0.000675395 -8.03383e-06 38.7871 5087.2 7003.89 
1170 0.8218 0.8218 0 0.000757902 0.000757902 5.61195e-07 36.8007 5048.89 6876.69 
1210 0.6926 0.6926 0 0.000779028 0.000779028 -3.54281e-05 30.7959 5109.49 6708.5 
1250 0.5388 0.5388 0 0.000825251 0.000825251 3.53379e-05 22.1574 3985.85 5414.91 
11 0.0268 0.0268 0 0.000126233 0.000126233 2.39718e-06 124.957 20078.1 29295.2 
51 9.5934 9.5934 0 0.0403534 0.0403534 -6.37158e-05 402.457 29384.6 40624.4 
91 10.356 10.356 0 0.0429361 0.0429361 2.70766e-05 428.215 25843.7 35888.2 
131 10.676 10.676 0 0.0442804 0.0442804 -7.4242e-05 441.623 26041.6 35588.6 
171 10.625 10.625 0 0.0439972 0.0439972 0.000100526 438.798 24878.4 35376.5 
211 10.5738 10.5738 0 0.0437351 0.0437351 -0.000135588 436.184 26367.5 36116 
251 10.2308 10.2308 0 0.0424918 0.0424918 -5.48662e-05 423.784 28036.3 38757.9 
291 9.0876 9.0876 0 0.038462 0.038462 7.42229e-06 383.594 30482.3 42211 
331 0.0038 0.0038 0 6.30821e-06 6.30821e-06 -2.54352e-07 14.0774 2872.07 3063.86 
371 0.6826 0.6826 0 0.000880145 0.000880145 -6.13937e-06 30.1294 5339.53 7131.95 
411 0.7816 0.7816 0 0.000716387 0.000716387 3.88567e-06 34.8401 5128.69 6826.55 
451 0.8522 0.8522 0 0.00070463 0.00070463 1.02183e-05 37.5457 5442.15 7170.72 
491 0.8992 0.8992 0 0.000675849 0.000675849 2.5064e-05 39.6624 5127.84 7026.11 
531 0.9116 0.9116 0 0.000638863 0.000638863 -2.47651e-05 39.7276 4927.27 6703.17 
571 0.881 0.881 0 0.000576545 0.000576545 -1.42768e-05 38.6387 4574.6 6138.11 
611 0.792 0.792 0 0.000694798 0.000694798 2.00353e-05 34.5552 4415.79 5810.63 
651 0.0584 0.0584 0 -0.000217418 -0.000217418 -5.37335e-06 2.16838 138.727 276.911 
691 0.141 0.141 0 -0.000573051 -0.000573051 -1.22357e-05 5.71522 435.836 738.01 
731 0.1806 0.1806 0 -0.000757434 -0.000757434 3.34217e-06 7.55413 663.047 971.574 
771 0.209 0.209 0 -0.000912023 -0.000912023 7.27717e-06 9.09589 678.814 937.497 
811 0.208 0.208 0 -0.000894496 -0.000894496 8.09683e-06 8.92109 639.298 897.443 
851 0.1936 0.1936 0 -0.000824906 -0.000824906 -1.61783e-05 8.22705 521.551 862.555 
891 0.15 0.15 0 -0.000642459 -0.000642459 -1.59986e-06 6.40745 531.774 839.638 
931 0.0758 0.0758 0 -0.000289082 -0.000289082 -1.09232e-05 2.88311 243.777 378.658 
971 0.7246 0.7246 0 0.000801667 0.000801667 -6.9963e-06 31.9295 4376.74 5882.01 
1011 0.8824 0.8824 0 0.000678695 0.000678695 2.86557e-05 38.4481 4654.61 6342.35 
1051 0.9148 0.9148 0 0.000651175 0.000651175 1.84539e-05 40.1615 4775.86 6742.25 
1091 0.9038 0.9038 0 0.000671974 0.000671974 6.4184e-05 39.6301 5122.78 6922.07 
1131 0.8528 0.8528 0 0.000704952 0.000704952 -8.53836e-06 37.5932 4975.89 6788.67 
1171 0.782 0.782 0 0.000704303 0.000704303 -4.76047e-05 34.784 5482.22 7366.27 
1211 0.6878 0.6878 0 0.000820448 0.000820448 -1.41883e-05 30.2861 5090.86 6686.61 
1251 0.5198 0.5198 0 0.000856753 0.000856753 7.68821e-05 21.2868 3733.47 5087.01 
12 0.0308 0.0308 0 0.000137309 0.000137309 4.44955e-07 135.733 27225 34595.3 
52 9.5738 9.5738 0 0.0401476 0.0401476 -2.35157e-05 400.405 28534.2 39748.2 
92 10.4238 10.4238 0 0.0431264 0.0431264 4.65282e-05 430.113 27488.9 37509.2 
132 10.572 10.572 0 0.0437078 0.0437078 5.58136e-06 435.911 25397.5 35280.3 
172 10.7052 10.7052 0 0.0442267 0.0442267 1.78222e-05 441.087 25863.3 35746.2 
212 10.6598 10.6598 0 0.0441249 0.0441249 1.74394e-05 440.072 25953.3 35795.8 
252 10.2158 10.2158 0 0.0425322 0.0425322 7.5108e-06 424.187 27315.7 37827.1 
292 9.07 9.07 0 0.0384155 0.0384155 -2.16964e-05 383.13 30544.1 42402.7 
332 0.4974 0.4974 0 0.000800609 0.000800609 -7.41757e-07 18.2165 2643.45 4306.05 
372 0.6582 0.6582 0 0.000785072 0.000785072 1.76446e-05 28.8684 4951.37 6610.1 
412 0.7638 0.7638 0 0.000790583 0.000790583 -3.85086e-05 33.9583 5318.85 7083.73 
452 0.8538 0.8538 0 0.000720849 0.000720849 -4.00545e-05 37.6324 5282.85 6930.54 
492 0.8656 0.8656 0 0.000673471 0.000673471 3.60713e-05 37.6284 4849.11 6637.74 
532 0.8958 0.8958 0 0.000624488 0.000624488 -3.03369e-06 39.1265 4960.2 6708.07 
572 0.9074 0.9074 0 0.000573668 0.000573668 5.4859e-06 39.2806 4370.64 6072.5 
612 0.8028 0.8028 0 0.000739265 0.000739265 9.0205e-06 35.1023 4761.04 6336.49 
652 0.0706 0.0706 0 -0.000245873 -0.000245873 8.6743e-07 2.45217 125.876 288.73 
692 0.1382 0.1382 0 -0.000564418 -0.000564418 1.16136e-05 5.62912 341.671 525.924 
732 0.1796 0.1796 0 -0.000755278 -0.000755278 6.83296e-06 7.53263 673.53 969.907 