ITEM: TIMESTEP
25000
ITEM: NUMBER OF SURFS
1260
ITEM: BOX BOUNDS oo rr pp
0 0.3
0 0.3
-0.5 0.5
ITEM: SURFS id f_4[1] f_4[2] f_4[3] f_4[4] f_4[5] f_4[6] f_4[7] f_4[8] f_4[9] 
1 0.0084 0.0084 0 0.000131212 0.000131212 1.40239e-05 158.487 12691.3 17893.5 
41 9.5494 9.5494 0 0.38987 0.38987 0.000402723 3890.89 217184 308797 
81 10.506 10.506 0 0.424321 0.424321 7.92611e-05 4234.71 191202 275861 
121 10.8874 10.8874 0 0.439144 0.439144 0.00199397 4382.65 186378 272941 
161 11.047 11.047 0 0.44429 0.44429 -0.000399265 4434 181663 272008 
201 10.8098 10.8098 0 0.437167 0.437167 -0.00230504 4362.92 182441 271142 
241 10.6448 10.6448 0 0.429932 0.429932 0.000589844 4290.71 195616 285085 
281 9.823 9.823 0 0.401363 0.401363 0.000439084 4005.59 199296 289781 
321 0.0598 0.0598 0 0.00252517 0.00252517 -3.87798e-05 1249.31 143367 198739 
361 0.4344 0.4344 0 0.00311888 0.00311888 -0.000331314 174.589 10212.9 13211 
401 0.5756 0.5756 0 0.00197187 0.00197187 -0.000166282 229.238 10283.3 13600.1 
441 0.712 0.712 0 0.0019966 0.0019966 -0.00018052 282.24 8647.25 12605.3 
481 0.7866 0.7866 0 0.00155107 0.00155107 0.000220528 316.442 9586.85 13249.4 
521 0.855 0.855 0 0.00175918 0.00175918 -2.2807e-05 334.107 9375.61 13135 
561 0.8762 0.8762 0 0.00195044 0.00195044 0.000246269 348.674 12102.3 15320.9 
601 0.8548 0.8548 0 0.00226877 0.00226877 -8.20652e-05 338.265 11213.1 16249.5 
641 0.0022 0.0022 0 -4.31299e-05 -4.31299e-05 1.81254e-05 31.9524 -3275.77 1179.83 
681 0.2238 0.2238 0 -0.008643 -0.008643 -0.000251141 86.257 2232.97 3096.05 
721 0.2272 0.2272 0 -0.00901397 -0.00901397 -0.000183958 89.9592 2302.01 3597.47 
761 0.2438 0.2438 0 -0.00975574 -0.00975574 -2.39813e-05 97.362 4767.15 5851.05 
801 0.2422 0.2422 0 -0.00995662 -0.00995662 -0.000121048 99.3668 2788.62 4145.17 
841 0.2274 0.2274 0 -0.00898197 -0.00898197 -5.39598e-05 89.6399 2988.76 4864.68 
881 0.2448 0.2448 0 -0.00952758 -0.00952758 -5.6961e-05 95.085 1826.98 2391.7 
921 0.2242 0.2242 0 -0.00866303 -0.00866303 0.00010107 86.4568 2107.61 2566.1 
961 0.0084 0.0084 0 9.15208e-05 9.15208e-05 -9.40166e-06 168.85 11404.8 7408.51 
1001 0.8608 0.8608 0 0.00188709 0.00188709 0.000119917 342.709 11833.6 15330.7 
1041 0.902 0.902 0 0.00195988 0.00195988 0.000674148 360.047 11050 16271.6 
1081 0.8376 0.8376 0 0.00203952 0.00203952 5.45475e-05 329.384 10032.8 13919 
1121 0.7584 0.7584 0 0.00170009 0.00170009 -0.0002208 297.417 10386.5 13180.3 
1161 0.6592 0.6592 0 0.00153686 0.00153686 -0.000267427 258.549 8825.46 12213.5 
1201 0.539 0.539 0 0.00189294 0.00189294 0.000279944 216.113 7299.22 9881.68 
1241 0.3922 0.3922 0 0.00301855 0.00301855 9.64072e-05 156.865 9340.7 12153.6 
2 0.0112 0.0112 0 0.000203894 0.000203894 -4.54516e-05 199.335 25039 30325.3 
42 9.5436 9.5436 0 0.392024 0.392024 0.000488212 3912.39 215880 309666 
82 10.49 10.49 0 0.42436 0.42436 -0.000330983 4235.1 196982 283145 
122 10.7804 10.7804 0 0.433708 0.433708 0.000258155 4328.4 184808 271430 
162 10.8974 10.8974 0 0.438753 0.438753 8.46748e-05 4378.74 192169 277373 
202 10.992 10.992 0 0.44354 0.44354 -0.000107036 4426.51 187231 274422 
242 10.6118 10.6118 0 0.429178 0.429178 0.000441137 4283.18 191107 279247 
282 9.7466 9.7466 0 0.397288 0.397288 0.000119005 3964.92 207149 293923 
322 0.0466 0.0466 0 0.00182786 0.00182786 -0.000116308 938.834 60503.8 91466.1 
362 0.4322 0.4322 0 0.00289582 0.00289582 0.000180642 174.363 9199.83 11579 
402 0.5692 0.5692 0 0.00168444 0.00168444 -0.000291678 228.79 11471.9 14338.8 
442 0.7154 0.7154 0 0.00209554 0.00209554 -1.30362e-05 283.64 10859 14304.4 
482 0.8012 0.8012 0 0.00211261 0.00211261 -0.000319785 319.262 11474.3 15804.9 
522 0.9048 0.9048 0 0.0017738 0.0017738 -0.000317723 355.546 12181.3 17774.2 
562 0.8936 0.8936 0 0.00244275 0.00244275 -0.000309366 352.277 9257.22 12544.2 
602 0.8436 0.8436 0 0.00303773 0.00303773 -0.000113414 339.14 11915.9 15627.8 
642 0.0018 0.0018 0 -4.05105e-05 -4.05105e-05 -1.61186e-05 28.5918 2079.08 2586.66 
682 0.229 0.229 0 -0.00891355 -0.00891355 -0.00010411 88.957 1347.64 1463.1 
722 0.2358 0.2358 0 -0.00942502 -0.00942502 -2.68339e-06 94.0615 1472.34 2686.67 
762 0.2314 0.2314 0 -0.00927238 -0.00927238 -0.000137402 92.5381 2415.84 3304.7 
802 0.2536 0.2536 0 -0.0101057 -0.0101057 -7.95598e-05 100.855 2554.03 4927.8 
842 0.2358 0.2358 0 -0.00941173 -0.00941173 0.000129173 93.9288 3298.61 4070.11 
882 0.2298 0.2298 0 -0.0090303 -0.0090303 0.000123972 90.1222 2107.57 3392.35 
922 0.2144 0.2144 0 -0.00839826 -0.00839826 2.02228e-05 83.8144 760.113 767.649 
962 0.531 0.531 0 0.00533762 0.00533762 6.26668e-05 213.004 11849.2 15296 
1002 0.8798 0.8798 0 0.00220823 0.00220823 -5.66789e-05 351.49 13017.2 16919.8 
1042 0.8726 0.8726 0 0.00180225 0.00180225 -0.000119671 348.272 11187.3 14301 
1082 0.872 0.872 0 0.00168317 0.00168317 0.000210218 346.225 10114.2 14744.8 
1122 0.7708 0.7708 0 0.00168497 0.00168497 -1.55133e-05 306.886 8555.04 12944.4 
1162 0.7086 0.7086 0 0.0019916 0.0019916 -0.00027894 283.438 9101.96 11480.6 
1202 0.5378 0.5378 0 0.00211271 0.00211271 9.47994e-05 211.566 7941.16 9554.7 
1242 0.4004 0.4004 0 0.00330015 0.00330015 -2.89811e-05 160.691 9570.21 12575.4 
3 0.012 0.012 0 0.000300455 0.000300455 -3.17337e-06 203.851 24137.2 32139.3 
43 9.5062 9.5062 0 0.388484 0.388484 0.000722368 3877.06 211261 301901 
83 10.4088 10.4088 0 0.422467 0.422467 -0.000498482 4216.21 188276 277120 
123 10.8924 10.8924 0 0.438879 0.438879 0.000340571 4380 182197 267895 
163 10.8674 10.8674 0 0.438263 0.438263 -0.000261797 4373.85 180931 263172 
203 10.879 10.879 0 0.440108 0.440108 0.000425953 4392.27 181387 266616 
243 10.6982 10.6982 0 0.433218 0.433218 8.07414e-05 4323.5 193978 282421 
283 9.7928 9.7928 0 0.399628 0.399628 0.000590888 3988.27 214818 309839 
323 0.0352 0.0352 0 0.00134932 0.00134932 -4.21891e-05 706.877 52238.7 58179.3 
363 0.4182 0.4182 0 0.00275828 0.00275828 -4.18275e-05 168.044 8037.19 10060.8 
403 0.5984 0.5984 0 0.00192726 0.00192726 0.000171654 238.742 7562.37 11667.6 
443 0.719 0.719 0 0.00197027 0.00197027 -0.000423397 288.572 9417.8 11798.4 
483 0.8138 0.8138 0 0.00207528 0.00207528 0.000177988 322.397 9858.6 13079.4 
523 0.8522 0.8522 0 0.002071 0.002071 -0.000305511 333.186 10388.7 15070.4 
563 0.8982 0.8982 0 0.00214051 0.00214051 -7.0038e-05 354.899 13113.5 17680.9 
603 0.8546 0.8546 0 0.00249514 0.00249514 0.00058247 335.24 10913.8 15714.7 
643 0.0004 0.0004 0 -1.42501e-05 -1.42501e-05 -4.56258e-06 7.27155 -1744.45 -1677.35 
683 0.207 0.207 0 -0.00817606 -0.00817606 0.000173826 81.5968 811.397 1144.7 
723 0.2268 0.2268 0 -0.00885552 -0.00885552 8.0147e-05 88.3779 1139.53 1942.33 
763 0.2352 0.2352 0 -0.00932933 -0.00932933 9.17637e-05 93.1065 3168.07 4387.34 
803 0.2456 0.2456 0 -0.00995539 -0.00995539 -0.000319016 99.3545 3722.77 4943.96 
843 0.2342 0.2342 0 -0.00932643 -0.00932643 -0.000107445 93.0776 3300.78 5158.87 
883 0.2318 0.2318 0 -0.00905615 -0.00905615 -0.000126806 90.3801 718.533 1479.85 
923 0.2156 0.2156 0 -0.00859553 -0.00859553 4.71193e-05 85.7832 167.057 852.192 
963 0.5738 0.5738 0 0.00441954 0.00441954 -6.79327e-05 229.999 10965.7 13740.8 
1003 0.8644 0.8644 0 0.00227325 0.00227325 -0.000134594 344.342 11911 16167 
1043 0.877 0.877 0 0.00212625 0.00212625 0.000102985 345.802 9796.7 13777.5 
1083 0.8312 0.8312 0 0.00207421 0.00207421 0.000274474 324.958 10719.3 13870.5 
1123 0.7812 0.7812 0 0.00184275 0.00184275 0.000435687 313.495 10514.5 15259.9 
1163 0.673 0.673 0 0.0020919 0.0020919 3.53197e-06 264.938 8899.14 12987.8 
1203 0.5294 0.5294 0 0.00211481 0.00211481 1.74508e-05 213.265 9086 11956.7 
1243 0.383 0.383 0 0.00365728 0.00365728 7.32105e-06 152.07 10977.1 14118.5 
4 0.0184 0.0184 0 0.000443143 0.000443143 -5.65791e-05 337.965 19031.1 25237.9 
44 9.5174 9.5174 0 0.389395 0.389395 -0.00163468 3886.15 206895 299425 
84 10.5492 10.5492 0 0.427294 0.427294 0.000151095 4264.39 193187 278574 
124 10.8808 10.8808 0 0.437275 0.437275 0.000895116 4364 189564 271756 
164 11.147 11.147 0 0.450757 0.450757 -0.000439634 4498.54 185947 272719 
204 10.8702 10.8702 0 0.439024 0.439024 0.00114097 4381.44 188174 273854 
244 10.4618 10.4618 0 0.425776 0.425776 -0.000180672 4249.23 190990 277515 
284 9.7324 9.7324 0 0.396699 0.396699 0.000699349 3959.04 214251 308808 
324 0.028 0.028 0 0.000976553 0.000976553 -8.45169e-05 548.833 77594.6 96818.4 
364 0.4482 0.4482 0 0.00302062 0.00302062 -0.000186247 179.818 8908.5 10978.5 
404 0.601 0.601 0 0.00190868 0.00190868 7.84328e-05 236.672 8422.5 11222.9 
444 0.7004 0.7004 0 0.00144176 0.00144176 -5.33962e-05 279.885 9951.82 13724.3 
484 0.8354 0.8354 0 0.0019535 0.0019535 -3.49608e-05 334.123 10697.7 14965.8 
524 0.8854 0.8854 0 0.00182311 0.00182311 -0.000159216 350.296 11280.1 15414.7 
564 0.902 0.902 0 0.0024107 0.0024107 0.000126585 356.698 10903.6 13816.2 
604 0.8586 0.8586 0 0.00279125 0.00279125 -0.00032832 339.241 11386.8 15912 
644 0.0012 0.0012 0 -4.77532e-05 -4.77532e-05 -5.54211e-06 26.8788 384.476 3884.86 
684 0.2296 0.2296 0 -0.00873822 -0.00873822 -4.92575e-05 87.2072 880.882 1210.21 
724 0.2264 0.2264 0 -0.00906125 -0.00906125 3.54946e-05 90.431 2930.96 3225.38 
764 0.2412 0.2412 0 -0.00961539 -0.00961539 -4.03432e-05 95.9613 3326.18 4410.73 
804 0.2476 0.2476 0 -0.0100308 -0.0100308 -4.23293e-05 100.107 3499.65 4871.33 
844 0.2444 0.2444 0 -0.00964392 -0.00964392 0.000107282 96.2461 3178.91 3278.14 
884 0.2252 0.2252 0 -0.00894547 -0.00894547 0.000112867 89.2756 881.027 1998.97 
924 0.2288 0.2288 0 -0.00889585 -0.00889585 -0.00013285 88.7804 944.928 1723.02 
964 0.6096 0.6096 0 0.00445879 0.00445879 0.000244369 244.215 12145.4 15502.8 
1004 0.8998 0.8998 0 0.00229308 0.00229308 -0.000127419 354.792 12073.8 17375.6 
1044 0.8724 0.8724 0 0.00215883 0.00215883 0.000146948 344.272 9881.23 13158.7 
1084 0.855 0.855 0 0.00164749 0.00164749 0.000183465 334.189 9909.92 15751.5 
1124 0.7842 0.7842 0 0.00174175 0.00174175 -1.86337e-05 312.865 12445.2 16231.4 
1164 0.688 0.688 0 0.00190977 0.00190977 -0.000303163 271.809 9721.33 12871.1 
1204 0.548 0.548 0 0.00200965 0.00200965 7.7592e-05 218.274 8442.9 11597.4 
1244 0.391 0.391 0 0.00366571 0.00366571 -6.00139e-05 156.444 10224.5 14440.2 
5 0.021 0.021 0 0.000613237 0.000613237 1.81549e-06 380.675 39294.5 42845.6 
45 9.7556 9.7556 0 0.398242 0.398242 0.00146503 3974.44 214315 309501 
85 10.5998 10.5998 0 0.428509 0.428509 0.000314287 4276.51 197320 287844 
125 10.9904 10.9904 0 0.443656 0.443656 -0.000196859 4427.67 186101 275896 
165 10.9354 10.9354 0 0.440571 0.440571 -0.000637257 4396.89 177198 264683 
205 11.0182 11.0182 0 0.443195 0.443195 -0.00122417 4423.07 181869 270276 
245 10.447 10.447 0 0.422579 0.422579 0.000387326 4217.33 193734 283300 
285 9.6754 9.6754 0 0.395845 0.395845 0.00103733 3950.52 206695 294835 
325 0.0296 0.0296 0 0.00106725 0.00106725 2.37504e-05 606.507 51203.7 61470.3 
365 0.4374 0.4374 0 0.00251978 0.00251978 -3.50726e-05 178.676 7616.38 10283.4 
405 0.5818 0.5818 0 0.00227239 0.00227239 -0.000218851 234.889 9931.81 11782.9 
445 0.7148 0.7148 0 0.00169337 0.00169337 0.00031273 283.962 9683.96 13294.9 
485 0.806 0.806 0 0.00188638 0.00188638 -0.000250985 318.865 9709.3 13809.9 
525 0.8622 0.8622 0 0.00188895 0.00188895 -0.000112664 342.218 10525.9 16103.6 
565 0.8794 0.8794 0 0.00130324 0.00130324 -0.00011025 348.951 11526.1 15458.3 
605 0.8474 0.8474 0 0.00279298 0.00279298 0.000346228 339.819 11771.1 16316 
645 0.0014 0.0014 0 -3.48168e-05 -3.48168e-05 -2.36471e-06 18.8072 3568.35 3250.98 
685 0.2256 0.2256 0 -0.00881451 -0.00881451 0.00026581 87.9686 2187.65 2978.43 
725 0.2264 0.2264 0 -0.00882912 -0.00882912 0.000136227 88.1144 2042.08 2621.87 
765 0.2352 0.2352 0 -0.00928867 -0.00928867 4.87136e-05 92.7007 3650.64 5668.4 
805 0.2462 0.2462 0 -0.00989024 -0.00989024 0.000159957 98.7043 3657 4692.94 
845 0.2306 0.2306 0 -0.00902903 -0.00902903 -0.000116047 90.1095 2863.3 4340.6 
885 0.2186 0.2186 0 -0.00864883 -0.00864883 -2.83794e-05 86.3151 2311.66 3259.12 
925 0.212 0.212 0 -0.00811459 -0.00811459 -0.000349502 80.9834 939.558 1736.08 
965 0.6478 0.6478 0 0.0041455 0.0041455 -0.000121083 256.569 11456.8 15873.6 
1005 0.8836 0.8836 0 0.00247403 0.00247403 8.66066e-05 351.7 10324.8 14386.8 
1045 0.8912 0.8912 0 0.00252535 0.00252535 0.000201763 352.858 10647.8 14971.4 
1085 0.8378 0.8378 0 0.00179475 0.00179475 1.22193e-05 335.1 10820.8 15134.2 
1125 0.765 0.765 0 0.00198894 0.00198894 -2.59297e-06 303.133 9931.08 12712.6 
1165 0.6724 0.6724 0 0.00159292 0.00159292 -0.000255384 267.242 10042.1 14090.1 
1205 0.515 0.515 0 0.00240622 0.00240622 0.000296588 205.982 9162.16 12551.3 
1245 0.383 0.383 0 0.00319787 0.00319787 -6.27543e-06 155.138 8995.81 11198.1 
6 0.0236 0.0236 0 0.000703773 0.000703773 0.000145605 442.614 37220.9 42981.3 
46 9.6686 9.6686 0 0.39605 0.39605 0.000310615 3952.57 205548 298722 
86 10.5834 10.5834 0 0.428266 0.428266 -0.000823666 4274.08 197062 287408 
126 10.909 10.909 0 0.440948 0.440948 -0.00112185 4400.65 190037 278150 
166 10.8902 10.8902 0 0.439647 0.439647 -0.000768801 4387.66 177373 260488 
206 10.7728 10.7728 0 0.434932 0.434932 -5.6861e-06 4340.61 185035 268742 
246 10.6158 10.6158 0 0.432228 0.432228 3.25043e-05 4313.62 202117 287584 
286 9.552 9.552 0 0.391666 0.391666 -0.000630788 3908.82 210554 303710 
326 0.0246 0.0246 0 0.000820477 0.000820477 -3.13694e-06 498.342 63068.5 79398.7 
366 0.4422 0.4422 0 0.00255503 0.00255503 -0.00010374 179.452 9150.26 12331.2 
406 0.5938 0.5938 0 0.00175547 0.00175547 0.000103872 235.959 8195.92 12687.1 
446 0.7396 0.7396 0 0.0019198 0.0019198 -9.80586e-05 289.657 9225.24 12745.2 
486 0.8084 0.8084 0 0.00189496 0.00189496 -6.70207e-05 323.41 9335.35 13344.8 
526 0.848 0.848 0 0.0021168 0.0021168 0.000415333 338.229 12119.7 16001.2 
566 0.894 0.894 0 0.00203032 0.00203032 -1.30804e-05 358.19 10765.8 15851.9 
606 0.8346 0.8346 0 0.00231568 0.00231568 -0.000485402 331.031 8149.74 11862.8 
646 0.0024 0.0024 0 -8.81101e-05 -8.81101e-05 1.49717e-05 45.2954 3062.31 4367.09 
686 0.2322 0.2322 0 -0.00904834 -0.00904834 -0.000159571 90.3022 1038.14 1828 
726 0.227 0.227 0 -0.00888334 -0.00888334 -0.000324756 88.6555 2439.16 3190.39 
766 0.242 0.242 0 -0.00968213 -0.00968213 -9.63365e-05 96.6274 3803.87 5822.37 
806 0.2546 0.2546 0 -0.0103953 -0.0103953 -0.000101382 103.745 5083.97 6989.39 
846 0.242 0.242 0 -0.00966797 -0.00966797 0.000214503 96.4861 3759.66 4812.5 
886 0.2264 0.2264 0 -0.0090672 -0.0090672 -7.74302e-05 90.4904 1112.74 1525.21 
926 0.2118 0.2118 0 -0.00829266 -0.00829266 2.97591e-06 82.7605 1515.57 2612.65 
966 0.6432 0.6432 0 0.00386981 0.00386981 -0.000224651 257.987 12893.5 16247.4 
1006 0.904 0.904 0 0.00196997 0.00196997 -0.000201549 356.294 10776.7 15384.2 
1046 0.8498 0.8498 0 0.00150285 0.00150285 6.13028e-05 335.477 9806.09 13315.1 
1086 0.8328 0.8328 0 0.00209667 0.00209667 -0.000134136 333.692 10746.4 14822.4 
1126 0.7768 0.7768 0 0.00168548 0.00168548 0.000219986 307.765 10303.4 14567.5 
1166 0.6642 0.6642 0 0.00132887 0.00132887 -0.000268365 264.752 8950.25 11566.3 
1206 0.5052 0.5052 0 0.00191787 0.00191787 -0.000257339 204.669 9922.87 12743.5 
1246 0.389 0.389 0 0.00403143 0.00403143 -0.000175612 154.317 10825.2 12956.9 
7 0.0272 0.0272 0 0.000953801 0.000953801 1.90803e-05 521.6 54371.8 87826.4 
47 9.671 9.671 0 0.395444 0.395444 0.00116678 3946.52 205271 295085 
87 10.639 10.639 0 0.430291 0.430291 -0.00023565 4294.29 191581 282318 
127 10.8482 10.8482 0 0.435873 0.435873 -0.000377916 4350 177409 261316 
167 10.9956 10.9956 0 0.44221 0.44221 -0.00143764 4413.24 183171 266263 
207 10.8898 10.8898 0 0.439759 0.439759 0.000268544 4388.78 184444 271888 
247 10.461 10.461 0 0.424405 0.424405 -0.00135181 4235.55 200491 286783 
287 9.585 9.585 0 0.391585 0.391585 0.000308562 3908.01 213146 309509 
327 0.021 0.021 0 0.00066584 0.00066584 -3.99585e-05 428.835 14024.4 21559.2 
367 0.4356 0.4356 0 0.00254169 0.00254169 2.47509e-05 176.869 7900.37 10524.9 
407 0.604 0.604 0 0.00202709 0.00202709 0.000170021 239.456 8557.36 11948.7 
447 0.708 0.708 0 0.00203366 0.00203366 0.000299007 281.849 9421.09 13274.5 
487 0.8194 0.8194 0 0.00238516 0.00238516 0.000126397 325.342 8272.39 10997.9 
527 0.8768 0.8768 0 0.00196707 0.00196707 -0.000128443 347.296 12181.4 15786.5 
567 0.8802 0.8802 0 0.00215258 0.00215258 0.000267455 348.482 11152.2 15674.5 
607 0.8248 0.8248 0 0.00299715 0.00299715 9.25319e-05 326.428 7967.98 12327.8 
647 0.068 0.068 0 -0.00236059 -0.00236059 7.49005e-05 23.5587 306.907 460.236 
687 0.228 0.228 0 -0.00885696 -0.00885696 0.000205412 88.3922 1392.8 2044.01 
727 0.2282 0.2282 0 -0.00920266 -0.00920266 3.6411e-05 91.8423 1491.26 2596.78 
767 0.235 0.235 0 -0.009386 -0.009386 0.000162522 93.6721 2588.98 3655.01 
807 0.2412 0.2412 0 -0.00971926 -0.00971926 8.78001e-06 96.998 3117.76 4400.07 
847 0.24 0.24 0 -0.00951894 -0.00951894 5.7095e-05 94.9988 1949.7 3197.11 
887 0.2238 0.2238 0 -0.00877671 -0.00877671 0.000108462 87.5914 2375.34 3371.76 
927 0.2054 0.2054 0 -0.00801832 -0.00801832 6.77002e-05 80.0226 1828.23 2621.84 
967 0.6438 0.6438 0 0.00382873 0.00382873 1.49707e-05 261.488 11807.8 15078.5 
1007 0.89 0.89 0 0.00171057 0.00171057 0.000553677 353.273 9772.94 13529.3 
1047 0.9156 0.9156 0 0.00238618 0.00238618 0.000219516 361.007 11501.3 16553.9 
1087 0.847 0.847 0 0.00212023 0.00212023 -0.000144616 337.187 9780.88 13499.2 
1127 0.7616 0.7616 0 0.00184168 0.00184168 0.000374098 302.08 11012.9 15027.6 
1167 0.6666 0.6666 0 0.00211026 0.00211026 0.000127924 262.612 9359.15 13384.7 
1207 0.512 0.512 0 0.00208861 0.00208861 -0.00043921 205.951 9416.3 13426.7 
1247 0.3856 0.3856 0 0.00442535 0.00442535 0.000339384 153.298 12645.8 15340.7 
8 0.0254 0.0254 0 0.000911976 0.000911976 -6.84921e-06 498.813 47591.8 56286 
48 9.7 9.7 0 0.396332 0.396332 0.000163048 3955.38 206933 298487 
88 10.5218 10.5218 0 0.426183 0.426183 0.00110893 4253.29 186350 270783 
128 11.0046 11.0046 0 0.442903 0.442903 0.000448436 4420.16 184839 274852 
168 10.9216 10.9216 0 0.441106 0.441106 0.000900149 4402.22 175326 256198 
208 10.8188 10.8188 0 0.436296 0.436296 -0.000460821 4354.22 189226 277347 
248 10.6172 10.6172 0 0.430072 0.430072 -0.000642422 4292.11 193340 280274 
288 9.5888 9.5888 0 0.39412 0.39412 0.000724977 3933.3 211750 310540 
328 0.018 0.018 0 0.000475158 0.000475158 2.02716e-05 368.922 29338.8 28747.7 
368 0.4468 0.4468 0 0.00249602 0.00249602 0.000272436 179.817 8811.94 11737.3 
408 0.5764 0.5764 0 0.00162055 0.00162055 2.49422e-05 228.402 8552.78 11793.9 
448 0.6992 0.6992 0 0.0016769 0.0016769 -0.00049831 281.097 7294.78 9830.74 
488 0.8072 0.8072 0 0.00181782 0.00181782 0.000274376 321.018 11544.2 15760.6 
528 0.8362 0.8362 0 0.0019179 0.0019179 0.00028116 331.086 10197.2 13340.1 
568 0.881 0.881 0 0.00198415 0.00198415 0.000142593 348.455 10941.4 15321.2 
608 0.8298 0.8298 0 0.00294748 0.00294748 0.000329569 327.868 10768.5 15489.5 
648 0.0834 0.0834 0 -0.00301823 -0.00301823 2.46945e-06 30.1219 -166.051 507.744 
688 0.2246 0.2246 0 -0.00880655 -0.00880655 -0.000235639 87.8891 1272.1 2048.06 
728 0.2284 0.2284 0 -0.00896085 -0.00896085 3.14846e-05 89.429 2234.56 2754.78 
768 0.2464 0.2464 0 -0.00989451 -0.00989451 4.60549e-05 98.747 2813.22 3422.52 
808 0.252 0.252 0 -0.010081 -0.010081 -9.63812e-05 100.608 4557.71 6751.35 
848 0.2234 0.2234 0 -0.00880196 -0.00880196 8.91086e-05 87.8433 1558.02 2701.22 
888 0.2148 0.2148 0 -0.008382 -0.008382 -5.87042e-05 83.6521 179.945 1171.7 
928 0.2112 0.2112 0 -0.00814494 -0.00814494 -0.000228041 81.2863 1149.85 1528.78 
968 0.7112 0.7112 0 0.00391926 0.00391926 0.000244314 282.743 11490.4 15605.2 
1008 0.8474 0.8474 0 0.00233316 0.00233316 0.000198337 339.357 11131.8 16760.4 
1048 0.8556 0.8556 0 0.0013701 0.0013701 -0.000543517 341.155 10828.2 15190.8 
1088 0.8384 0.8384 0 0.00172707 0.00172707 -0.000141426 332.666 10498.7 13926.9 
1128 0.765 0.765 0 0.00200575 0.00200575 -0.000386498 303.765 9952.08 13803.7 
1168 0.6506 0.6506 0 0.00187274 0.00187274 -2.15348e-05 258.235 8445.65 11537 
1208 0.5112 0.5112 0 0.00236039 0.00236039 0.000135615 206.32 8747.35 10702 
1248 0.3848 0.3848 0 0.00369374 0.00369374 7.65581e-06 152.655 9626.75 11755.7 
9 0.0402 0.0402 0 0.00151933 0.00151933 -3.9068e-05 797.506 65213.1 87782.8 
49 9.8336 9.8336 0 0.400738 0.400738 -0.000678084 3999.35 208823 299974 
89 10.6792 10.6792 0 0.432127 0.432127 -0.000787604 4312.62 195313 285893 
129 10.8492 10.8492 0 0.437669 0.437669 0.00138039 4367.93 185010 269613 
169 10.9648 10.9648 0 0.442442 0.442442 0.000454744 4415.56 181144 268263 
209 10.8336 10.8336 0 0.438228 0.438228 0.000138058 4373.5 191160 277234 
249 10.5222 10.5222 0 0.426899 0.426899 -0.000405581 4260.44 194891 284668 
289 9.4964 9.4964 0 0.388292 0.388292 0.000278339 3875.14 211548 304126 
329 0.0146 0.0146 0 0.000340071 0.000340071 1.36208e-05 267.645 32408.9 41609.5 
369 0.4594 0.4594 0 0.00279751 0.00279751 -0.000246731 183.656 8744.56 12659.3 
409 0.6142 0.6142 0 0.00218459 0.00218459 0.000278177 242.364 10447.1 14156.8 
449 0.7084 0.7084 0 0.00148733 0.00148733 -9.94596e-05 281.902 10701.7 14217.4 
489 0.8068 0.8068 0 0.00152918 0.00152918 0.000305865 319.623 9047.09 12835 
529 0.8802 0.8802 0 0.00181462 0.00181462 9.35577e-05 351.189 11393.9 14592.6 
569 0.907 0.907 0 0.00238984 0.00238984 -0.000209508 359.031 13010.3 17816.7 
609 0.8122 0.8122 0 0.00263184 0.00263184 -2.49966e-05 322.455 11595.6 14316.5 
649 0.1082 0.1082 0 -0.00392142 -0.00392142 -3.58324e-05 39.1357 306.133 914.913 
689 0.2082 0.2082 0 -0.00820992 -0.00820992 2.99174e-05 81.9347 777.641 1125.02 
729 0.227 0.227 0 -0.00898692 -0.00898692 6.64502e-05 89.6892 2436.55 3784.54 
769 0.241 0.241 0 -0.00962355 -0.00962355 -2.44595e-05 96.0428 2539.52 3861.66 
809 0.2602 0.2602 0 -0.0105092 -0.0105092 -3.47134e-05 104.882 2192.63 3594.85 
849 0.2338 0.2338 0 -0.00940101 -0.00940101 -0.000162603 93.8218 2950.03 3528.43 
889 0.2292 0.2292 0 -0.00886676 -0.00886676 0.000163761 88.49 1220.9 2287 
929 0.212 0.212 0 -0.00821654 -0.00821654 -0.000123585 82.0008 1353.2 1956.91 
969 0.7178 0.7178 0 0.00371028 0.00371028 -0.000165291 289.167 10941.3 14131.9 
1009 0.8776 0.8776 0 0.00231526 0.00231526 -6.45651e-05 352.94 12182.6 15204.3 
1049 0.856 0.856 0 0.00178706 0.00178706 -0.000251696 340.058 11992.7 14925.8 
1089 0.864 0.864 0 0.00144621 0.00144621 -0.000165415 339.013 10969.1 17015 
1129 0.7912 0.7912 0 0.00210541 0.00210541 -3.7519e-05 312.36 9651.85 12841.1 
1169 0.6554 0.6554 0 0.002274 0.002274 -1.13962e-05 261.177 9717.84 13605.1 
1209 0.491 0.491 0 0.00212491 0.00212491 0.000213259 196.525 8708.77 11537.8 
1249 0.3892 0.3892 0 0.00449832 0.00449832 -0.00025533 156.409 12928.2 16036.4 
10 0.0438 0.0438 0 0.00161964 0.00161964 -5.08457e-05 830.963 69154.6 102930 
50 9.77 9.77 0 0.398103 0.398103 0.000341152 3973.05 209040 297229 
90 10.5394 10.5394 0 0.425794 0.425794 -0.000529654 4249.42 188058 276950 
130 10.9344 10.9344 0 0.441556 0.441556 -0.000348068 4406.71 186705 271974 
170 10.9866 10.9866 0 0.442657 0.442657 -0.00152102 4417.71 180232 265081 
210 10.8482 10.8482 0 0.437688 0.437688 0.00145748 4368.11 177700 265108 
250 10.413 10.413 0 0.421198 0.421198 0.00101636 4203.54 188614 280371 
290 9.4736 9.4736 0 0.386861 0.386861 -0.000948335 3860.87 210863 301138 
330 0.011 0.011 0 0.000269891 0.000269891 3.42492e-05 202.936 12517 18029.9 
370 0.4486 0.4486 0 0.00242845 0.00242845 0.000271363 182.351 7841.24 10849.4 
410 0.6166 0.6166 0 0.0016306 0.0016306 -2.96926e-05 248.459 8828.9 11385.1 
450 0.7294 0.7294 0 0.00180969 0.00180969 0.000364687 290.41 10916.5 14017.5 
490 0.819 0.819 0 0.00157348 0.00157348 5.75731e-05 326.26 9343.07 12736.1 
530 0.8686 0.8686 0 0.00180332 0.00180332 -0.000463109 345.625 10014.8 15362.8 
570 0.9022 0.9022 0 0.0017584 0.0017584 3.55884e-05 357.123 9153.07 12836 
610 0.7982 0.7982 0 0.00244123 0.00244123 0.000270522 318.507 11436.9 14871.9 
650 0.1284 0.1284 0 -0.00492681 -0.00492681 7.29603e-05 49.1695 664.023 530.765 
690 0.2368 0.2368 0 -0.0093064 -0.0093064 -0.000178604 92.8776 1999.68 2220.69 
730 0.2294 0.2294 0 -0.00903831 -0.00903831 -5.39071e-05 90.2021 2231.37 3305.3 
770 0.2404 0.2404 0 -0.00975165 -0.00975165 -0.000291811 97.3212 2830.8 4094.04 
810 0.2498 0.2498 0 -0.00997848 -0.00997848 9.47831e-05 99.5849 3245.21 4945.02 
850 0.223 0.223 0 -0.00869419 -0.00869419 0.000143714 86.7677 3356.41 4658.17 
890 0.2348 0.2348 0 -0.00901531 -0.00901531 -5.22908e-05 89.9725 1178.76 2089.15 
930 0.2064 0.2064 0 -0.0081238 -0.0081238 3.94995e-05 81.0753 1472.82 2203.22 
970 0.7374 0.7374 0 0.00366371 0.00366371 9.2239e-05 293.848 11688.1 16167.8 
1010 0.8812 0.8812 0 0.00204117 0.00204117 1.06223e-05 349.855 11144.1 16072.9 
1050 0.8926 0.8926 0 0.0018529 0.0018529 -0.000192083 353.388 10746.8 15102.9 
1090 0.8194 0.8194 0 0.00118466 0.00118466 0.000233962 321.976 8497.63 11305.2 
1130 0.7512 0.7512 0 0.00177968 0.00177968 2.56278e-05 299.428 11254.8 15992.7 
1170 0.6626 0.6626 0 0.00270336 0.00270336 -0.000308122 265.226 10745.4 14149.2 
1210 0.5066 0.5066 0 0.00221486 0.00221486 9.58846e-05 203.329 9025.38 12924 
1250 0.3948 0.3948 0 0.00427069 0.00427069 -0.000351335 156.534 12378.8 14450.6 
11 0.0576 0.0576 0 0.00231955 0.00231955 7.71762e-06 1147.91 93434.1 121446 
51 9.8782 9.8782 0 0.403916 0.403916 0.000177787 4031.07 211122 302984 
91 10.6036 10.6036 0 0.42998 0.42998 -0.00118674 4291.19 191007 275533 
131 10.9796 10.9796 0 0.442949 0.442949 -0.001444 4420.62 185644 278414 
171 11.0452 11.0452 0 0.444726 0.444726 -0.00061859 4438.36 188451 274217 
211 10.8088 10.8088 0 0.437422 0.437422 0.00113924 4365.46 185907 272083 
251 10.506 10.506 0 0.427062 0.427062 -5.48095e-05 4262.07 191433 281768 
291 9.3896 9.3896 0 0.384722 0.384722 -0.00047093 3839.52 209567 302887 
331 0.0084 0.0084 0 0.000192782 0.000192782 1.2794e-05 155.952 21500.2 25685.4 
371 0.4674 0.4674 0 0.00226318 0.00226318 -0.000262675 185.967 9918.61 12727.5 
411 0.6336 0.6336 0 0.0019195 0.0019195 -3.9699e-05 253.987 8020.25 11608.5 
451 0.7248 0.7248 0 0.00148893 0.00148893 0.000437885 288.114 8775.55 12403.4 
491 0.8234 0.8234 0 0.0024518 0.0024518 -0.000163657 327.82 10943.7 14048.2 
531 0.8736 0.8736 0 0.00181986 0.00181986 0.00046876 342.754 11039.7 15521.8 
571 0.8934 0.8934 0 0.00193379 0.00193379 4.71246e-05 349.812 11398.3 15953.5 
611 0.8158 0.8158 0 0.00244248 0.00244248 -5.11471e-05 325.677 13097.4 15609.7 
651 0.1424 0.1424 0 -0.00557436 -0.00557436 -3.33728e-06 55.632 1136.43 1134.08 
691 0.2308 0.2308 0 -0.00901842 -0.00901842 7.35067e-05 90.0036 2359.7 3212.2 
731 0.2258 0.2258 0 -0.00884647 -0.00884647 7.69849e-05 88.2875 2642.99 2603.04 
771 0.243 0.243 0 -0.0098817 -0.0098817 0.000108489 98.6191 3684.48 3765.23 
811 0.2486 0.2486 0 -0.00985448 -0.00985448 -3.99391e-05 98.3475 3362.79 4928.07 
851 0.2322 0.2322 0 -0.00918566 -0.00918566 -6.29465e-05 91.6726 2448.1 4190.34 
891 0.225 0.225 0 -0.00873235 -0.00873235 0.000264535 87.1486 1334.45 1428.15 
931 0.2192 0.2192 0 -0.00839657 -0.00839657 0.000191693 83.7976 1026.27 881.054 
971 0.7376 0.7376 0 0.00299502 0.00299502 -0.000125454 294.486 10477.4 13578.7 
1011 0.879 0.879 0 0.00218899 0.00218899 4.91976e-05 349.79 10260.5 14892 
1051 0.8812 0.8812 0 0.00237403 0.00237403 0.000397824 347.092 11362.6 16358.5 
1091 0.8666 0.8666 0 0.00201053 0.00201053 -3.57627e-05 342.327 11313.7 14821.4 
1131 0.7686 0.7686 0 0.00156229 0.00156229 7.01146e-05 303.014 8845.47 11046.4 
1171 0.6606 0.6606 0 0.00137692 0.00137692 0.000227731 259.624 8872.75 10639.8 
1211 0.495 0.495 0 0.00224397 0.00224397 0.000115617 196.927 8851.69 12811.3 
1251 0.3936 0.3936 0 0.00474568 0.00474568 0.000263957 157.814 12147.6 14659.7 
12 0.0636 0.0636 0 0.00269604 0.00269604 0.000103959 1282.15 97881.3 149481 
52 9.6746 9.6746 0 0.395697 0.395697 -0.00158832 3949.04 199379 286596 
92 10.8036 10.8036 0 0.437475 0.437475 0.00127943 4365.99 189687 281509 
132 10.8948 10.8948 0 0.441048 0.441048 -0.00217016 4401.65 187452 274753 
172 10.9854 10.9854 0 0.443312 0.443312 0.00111358 4424.24 184887 267879 
212 10.8304 10.8304 0 0.43833 0.43833 -0.000968966 4374.52 194203 278557 
252 10.368 10.368 0 0.420465 0.420465 -0.00138762 4196.23 197390 283452 
292 9.32 9.32 0 0.382282 0.382282 0.000947002 3815.16 213141 304919 
332 0.2964 0.2964 0 0.00565331 0.00565331 0.000133064 106.436 11232.1 14318.7 
372 0.475 0.475 0 0.00196976 0.00196976 6.36043e-05 191.594 10196.4 11871 
412 0.6104 0.6104 0 0.00207913 0.00207913 5.17292e-05 243.709 9615.1 13382.4 
452 0.7384 0.7384 0 0.00149849 0.00149849 -0.000317785 291.917 9857.39 13907.4 
492 0.817 0.817 0 0.00169173 0.00169173 0.000349735 324.286 12840.9 16881.2 
532 0.8604 0.8604 0 0.00203282 0.00203282 -0.000315916 340.967 10380.1 14824.1 
572 0.8938 0.8938 0 0.00170254 0.00170254 -6.38544e-05 354.654 10414.7 13912.1 
612 0.827 0.827 0 0.00254272 0.00254272 -3.96312e-05 327.683 12950 16669.4 
652 0.1492 0.1492 0 -0.0058539 -0.0058539 0.000146086 58.4218 1302.49 1518.85 
692 0.2366 0.2366 0 -0.00923164 -0.00923164 2.2336e-05 92.1315 2604.61 2915.65 
732 0.2202 0.2202 0 -0.00891815 -0.00891815 2.80447e-05 89.0029 2546.87 3548.71 
772 0.2338 0.2338 0 -0.00928957 -0.00928957 1.48162e-05 92.7097 4130.06 5628.24 
812 0.252 0.252 0 -0.0099392 -0.0099392 -0.000198094 99.193 3777.85 4787.83 
852 0.2364 0.2364 0 -0.00951835 -0.00951835 -2.11121e-05 94.9929 3050.27 3982.69 
892 0.2232 0.2232 0 -0.00886927 -0.00886927 4.10022e-05 88.5151 2671.38 3693.48 
932 0.198 0.198 0 -0.00790463 -0.00790463 2.42711e-05 78.888 1501.79 1918.12 
972 0.7462 0.7462 0 0.00315545 0.00315545 8.8158e-05 296.435 12294.2 15048.6 
1012 0.8724 0.8724 0 0.00207665 0.00207665 0.000480185 346.13 10333.6 15347.3 
1052 0.867 0.867 0 0.00151419 0.00151419 4.08065e-05 347.109 9456.39 14034.1 
1092 0.8272 0.8272 0 0.00137793 0.00137793 -3.08868e-05 324.614 9973.31 13515.1 
1132 0.769 0.769 0 0.00208892 0.00208892 -9.50099e-06 302.229 8977.54 12706.8 
1172 0.6404 0.6404 0 0.0017866 0.0017866 -0.000348756 254.572 10203.2 14362.9 