ITEM: TIMESTEP
25000
ITEM: NUMBER OF SURFS
1260
ITEM: BOX BOUNDS oo rr pp
0 0.3
0 0.3
-0.5 0.5
ITEM: SURFS id f_4[1] f_4[2] f_4[3] f_4[4] f_4[5] f_4[6] f_4[7] f_4[8] f_4[9] 
1 0.0114 0.0114 0 2.30822e-05 2.30822e-05 4.35809e-07 20.9108 3232.75 5438.72 
41 9.1204 9.1204 0 0.0386169 0.0386169 4.27653e-05 385.396 30616.2 42082.8 
81 10.249 10.249 0 0.0425833 0.0425833 -3.56917e-05 424.98 26952.1 37452.1 
121 10.4818 10.4818 0 0.0433558 0.0433558 5.67916e-05 432.689 25805.3 35260.5 
161 10.764 10.764 0 0.0443076 0.0443076 -9.88361e-05 442.188 25568.3 35487.3 
201 10.6796 10.6796 0 0.0439925 0.0439925 5.9818e-05 439.044 26061.5 35386.8 
241 10.3738 10.3738 0 0.0429971 0.0429971 -4.13625e-05 429.11 26747.3 36555.7 
281 9.5348 9.5348 0 0.0402058 0.0402058 1.43665e-06 401.253 29537.9 40957.4 
321 0.0558 0.0558 0 0.000251728 0.000251728 1.794e-06 124.137 21091.5 28465.4 
361 0.6256 0.6256 0 0.000854267 0.000854267 4.126e-05 27.55 4652.88 6115.84 
401 0.7466 0.7466 0 0.000786872 0.000786872 1.19279e-05 33.0884 5276.35 7259.82 
441 0.8228 0.8228 0 0.000735803 0.000735803 3.79683e-05 36.4724 5083.69 6956.04 
481 0.8764 0.8764 0 0.000712816 0.000712816 -3.82637e-05 38.5294 5142.72 6985.45 
521 0.9272 0.9272 0 0.000684067 0.000684067 3.47033e-05 40.768 5275.88 7194.02 
561 0.9212 0.9212 0 0.000668969 0.000668969 -1.75518e-05 40.0162 4746.6 6653.7 
601 0.8224 0.8224 0 0.000656534 0.000656534 -1.80955e-05 36.2867 4601.69 6269.57 
641 0.0012 0.0012 0 -1.214e-06 -1.214e-06 -2.02771e-06 1.60858 189.615 458.079 
681 0.1148 0.1148 0 -0.00045977 -0.00045977 -8.28898e-06 4.5885 420.392 605.472 
721 0.1652 0.1652 0 -0.000688919 -0.000688919 -1.3493e-06 6.8754 598.056 905.252 
761 0.2196 0.2196 0 -0.000930893 -0.000930893 1.99198e-05 9.29029 716.194 1042.49 
801 0.2182 0.2182 0 -0.000932775 -0.000932775 5.77349e-06 9.30907 750.359 1085.29 
841 0.1946 0.1946 0 -0.000826868 -0.000826868 1.52496e-05 8.25212 686.667 1089.21 
881 0.165 0.165 0 -0.00067453 -0.00067453 -1.04717e-05 6.7318 519.284 785.687 
921 0.0914 0.0914 0 -0.000349191 -0.000349191 1.03869e-05 3.48491 322.142 453.369 
961 0.0122 0.0122 0 2.06646e-05 2.06646e-05 -1.50479e-06 25.6488 4752.24 6061.97 
1001 0.8512 0.8512 0 0.000594733 0.000594733 -4.00287e-05 37.2777 4183.75 5830.76 
1041 0.9198 0.9198 0 0.000717867 0.000717867 -4.0261e-05 40.3642 5135.33 7074.4 
1081 0.904 0.904 0 0.000663168 0.000663168 -1.80864e-05 39.6715 4888.03 6750.05 
1121 0.8726 0.8726 0 0.000766968 0.000766968 4.67702e-05 38.1471 4920.28 6839.01 
1161 0.8222 0.8222 0 0.000783226 0.000783226 -6.50843e-06 36.0619 5248 7124.32 
1201 0.732 0.732 0 0.000788894 0.000788894 -7.98181e-06 32.6058 5274.24 6993.42 
1241 0.571 0.571 0 0.000872938 0.000872938 -1.27864e-05 24.6396 4221.02 5829.39 
2 0.0138 0.0138 0 2.48942e-05 2.48942e-05 -4.20618e-06 25.1062 786.369 1994.87 
42 9.159 9.159 0 0.0387751 0.0387751 0.000108539 386.975 29833.8 41413.1 
82 10.2182 10.2182 0 0.0424999 0.0424999 -9.52187e-05 424.148 26922.1 37130.3 
122 10.5974 10.5974 0 0.0438046 0.0438046 5.71167e-05 437.169 25951.3 35719.2 
162 10.7084 10.7084 0 0.0442041 0.0442041 9.07175e-05 441.155 25133.4 35486.9 
202 10.5884 10.5884 0 0.0438458 0.0438458 1.74566e-05 437.58 26278.1 35805.3 
242 10.4642 10.4642 0 0.043319 0.043319 3.96832e-05 432.322 26725.4 37318.9 
282 9.4904 9.4904 0 0.0398344 0.0398344 4.20558e-05 397.546 29457.8 40983 
322 0.0484 0.0484 0 0.000207997 0.000207997 -1.10174e-05 103.757 19288.3 25475.4 
362 0.6238 0.6238 0 0.000838919 0.000838919 -6.7543e-05 27.1673 4553.43 6208.58 
402 0.7572 0.7572 0 0.000764813 0.000764813 -1.34137e-05 33.7286 5369.77 7257.91 
442 0.8002 0.8002 0 0.000659665 0.000659665 1.66086e-05 35.7457 5052.5 6822.19 
482 0.8692 0.8692 0 0.000676238 0.000676238 -2.55634e-05 38.5976 4995.76 6546.76 
522 0.8968 0.8968 0 0.000649192 0.000649192 1.05239e-05 39.2481 5061.83 6780.12 
562 0.9082 0.9082 0 0.000621096 0.000621096 -2.04446e-05 39.604 4626.98 6423.59 
602 0.8462 0.8462 0 0.000695034 0.000695034 -1.07851e-05 36.7999 4515.92 6259.61 
642 0.0018 0.0018 0 -5.42721e-06 -5.42721e-06 3.25168e-07 3.82898 282.714 798.334 
682 0.1118 0.1118 0 -0.000443112 -0.000443112 1.58797e-06 4.42224 341.634 448.674 
722 0.1764 0.1764 0 -0.000753118 -0.000753118 8.51208e-06 7.5161 549.009 764.655 
762 0.2062 0.2062 0 -0.0008794 -0.0008794 6.01179e-06 8.77639 740.583 1122.73 
802 0.2192 0.2192 0 -0.000959759 -0.000959759 -2.01127e-05 9.57837 762.75 1160.32 
842 0.1986 0.1986 0 -0.000848856 -0.000848856 5.73004e-06 8.47156 735.886 1037.7 
882 0.1688 0.1688 0 -0.000688988 -0.000688988 1.45716e-05 6.87609 505.939 759.834 
922 0.0934 0.0934 0 -0.000368082 -0.000368082 -2.3915e-06 3.67345 268.428 382.023 
962 0.5668 0.5668 0 0.000941437 0.000941437 3.37159e-05 25.7869 4583.43 6093.58 
1002 0.8822 0.8822 0 0.000666012 0.000666012 1.19099e-05 38.5335 4735.17 6443.35 
1042 0.8906 0.8906 0 0.000632312 0.000632312 2.57697e-05 39.1952 4714.59 6395.91 
1082 0.8972 0.8972 0 0.000630925 0.000630925 -3.35496e-05 39.6788 5241.43 7181.71 
1122 0.8914 0.8914 0 0.00070213 0.00070213 1.01383e-05 39.5883 5552.59 7548.76 
1162 0.8148 0.8148 0 0.000739874 0.000739874 -3.84782e-05 36.1711 5363.53 7075.11 
1202 0.7128 0.7128 0 0.000802742 0.000802742 3.84851e-05 31.4647 5115.95 6808.68 
1242 0.5622 0.5622 0 0.000856355 0.000856355 4.56524e-06 23.4995 4270.46 5787.74 
3 0.0166 0.0166 0 4.02798e-05 4.02798e-05 5.52556e-06 32.9643 4083.66 7877.24 
43 9.2494 9.2494 0 0.0391363 0.0391363 2.95386e-05 390.58 30549 41959.9 
83 10.2986 10.2986 0 0.0427702 0.0427702 7.73952e-05 426.846 27146.9 37796.2 
123 10.6348 10.6348 0 0.0439982 0.0439982 3.29968e-05 439.101 26403.7 36602.8 
163 10.7506 10.7506 0 0.0443065 0.0443065 4.63379e-05 442.178 25327.4 34916.6 
203 10.5214 10.5214 0 0.0435012 0.0435012 -4.51203e-06 434.141 26363.2 36148.8 
243 10.2504 10.2504 0 0.0427808 0.0427808 7.27773e-05 426.951 26569.9 36499.9 
283 9.5006 9.5006 0 0.0400015 0.0400015 -9.40678e-05 399.214 29009.8 39979.1 
323 0.0418 0.0418 0 0.000172368 0.000172368 -5.74252e-06 90.442 16371.4 22298 
363 0.632 0.632 0 0.000858845 0.000858845 -1.16666e-05 27.7663 4944.68 6482.59 
403 0.754 0.754 0 0.000755756 0.000755756 -3.7091e-05 33.5964 5154.25 7134.41 
443 0.8226 0.8226 0 0.000740047 0.000740047 7.27133e-06 36.5291 5345.23 7273.15 
483 0.8868 0.8868 0 0.000715809 0.000715809 -3.00998e-05 38.7729 5388.08 7255.7 
523 0.921 0.921 0 0.000657763 0.000657763 1.38299e-05 40.9886 5137.04 6922.14 
563 0.8922 0.8922 0 0.000598502 0.000598502 6.01782e-05 38.9811 4697.8 6631.06 
603 0.8302 0.8302 0 0.000674227 0.000674227 3.35703e-05 36.4331 4183.71 5712.18 
643 0.0016 0.0016 0 -4.89363e-06 -4.89363e-06 3.80182e-07 3.01836 404.091 349.253 
683 0.1236 0.1236 0 -0.000499085 -0.000499085 2.75012e-06 4.98086 391.636 586.166 
723 0.1772 0.1772 0 -0.000739315 -0.000739315 -8.43317e-06 7.37834 531.621 770.502 
763 0.2166 0.2166 0 -0.00093129 -0.00093129 2.24185e-05 9.29425 734.088 1023.11 
803 0.2154 0.2154 0 -0.000938989 -0.000938989 8.30072e-07 9.37109 747.564 1079.2 
843 0.2008 0.2008 0 -0.000859434 -0.000859434 1.47201e-05 8.57713 714.856 971.544 
883 0.155 0.155 0 -0.000643805 -0.000643805 6.09303e-06 6.42516 469.697 721.884 
923 0.091 0.091 0 -0.000358672 -0.000358672 -1.42716e-06 3.57953 205.87 380.896 
963 0.6018 0.6018 0 0.000900385 0.000900385 -9.82425e-06 26.9836 4418.48 5767.59 
1003 0.8944 0.8944 0 0.000707636 0.000707636 3.95858e-05 38.6724 4782.36 6436.89 
1043 0.912 0.912 0 0.000582498 0.000582498 7.19352e-05 40.0243 4980.07 6532.61 
1083 0.894 0.894 0 0.00068518 0.00068518 6.7606e-05 39.478 5039.46 6720.59 
1123 0.8582 0.8582 0 0.000672849 0.000672849 2.23604e-05 37.7198 4876.09 6606.99 
1163 0.8082 0.8082 0 0.000714969 0.000714969 2.25368e-07 36.2327 5372.46 7198.25 
1203 0.7306 0.7306 0 0.000817911 0.000817911 -6.37926e-06 32.3895 5085.56 6846.53 
1243 0.5666 0.5666 0 0.000834227 0.000834227 -5.0385e-06 23.9403 4095.55 5585.09 
4 0.0174 0.0174 0 4.55746e-05 4.55746e-05 3.44677e-06 33.8572 4434.32 8524.33 
44 9.3382 9.3382 0 0.0393881 0.0393881 -3.39868e-05 393.092 29980.8 41918.6 
84 10.2074 10.2074 0 0.0424075 0.0424075 6.58212e-05 423.226 27534.4 37374.7 
124 10.5656 10.5656 0 0.0437118 0.0437118 6.92028e-06 436.242 26285.6 36455.3 
164 10.6482 10.6482 0 0.0439748 0.0439748 -1.6203e-05 438.867 25579.2 34856.9 
204 10.6956 10.6956 0 0.0439651 0.0439651 -7.14421e-05 438.771 25689.7 35174.8 
244 10.3126 10.3126 0 0.0428809 0.0428809 6.29347e-05 427.95 27515 37699.5 
284 9.4572 9.4572 0 0.0397792 0.0397792 -5.07623e-05 396.995 29074.8 40276.6 
324 0.0366 0.0366 0 0.000141063 0.000141063 -5.01671e-06 76.8831 11935.4 16293.6 
364 0.653 0.653 0 0.000853987 0.000853987 3.75994e-05 28.7471 4886.37 6410.39 
404 0.7646 0.7646 0 0.000769441 0.000769441 -7.3739e-05 34.2038 5486.22 7400.72 
444 0.859 0.859 0 0.000703704 0.000703704 -8.61669e-06 38.1722 5416.01 7273.68 
484 0.8728 0.8728 0 0.000672982 0.000672982 3.25079e-05 38.1716 5018.75 6821.21 
524 0.9098 0.9098 0 0.000625033 0.000625033 -7.74482e-06 39.3607 4791.23 6550.83 
564 0.9104 0.9104 0 0.000629596 0.000629596 2.9314e-05 39.7074 4783.61 6691.03 
604 0.863 0.863 0 0.000709302 0.000709302 -3.83541e-05 37.6065 4471.93 6274.44 
644 0.0012 0.0012 0 -3.2207e-06 -3.2207e-06 4.35807e-07 1.79588 114.443 62.3634 
684 0.1224 0.1224 0 -0.000487717 -0.000487717 2.45047e-06 4.8674 375.136 543.214 
724 0.1834 0.1834 0 -0.000787175 -0.000787175 2.98245e-06 7.85598 685.696 1009.58 
764 0.1984 0.1984 0 -0.000843458 -0.000843458 -1.73775e-05 8.41769 553.301 777.84 
804 0.221 0.221 0 -0.000954589 -0.000954589 -9.26429e-06 9.52678 676.727 870.728 
844 0.187 0.187 0 -0.000816533 -0.000816533 6.41814e-07 8.14897 704.996 1008.3 
884 0.156 0.156 0 -0.000653684 -0.000653684 1.29775e-05 6.52375 541.793 766.271 
924 0.088 0.088 0 -0.000340733 -0.000340733 -1.05966e-05 3.40051 314.909 523.587 
964 0.634 0.634 0 0.000914578 0.000914578 -6.81832e-06 28.2925 4323 5672.92 
1004 0.8822 0.8822 0 0.000629888 0.000629888 2.58725e-05 38.7653 4563.5 6469.64 
1044 0.9048 0.9048 0 0.00061068 0.00061068 -3.66737e-05 39.2895 4684.33 6442 
1084 0.8836 0.8836 0 0.00061999 0.00061999 2.47128e-06 38.4945 4681.6 6470.18 
1124 0.8696 0.8696 0 0.000715575 0.000715575 -2.07774e-05 38.3568 5250.63 7097.54 
1164 0.799 0.799 0 0.000694182 0.000694182 1.32062e-05 35.4722 5123.66 6997.85 
1204 0.7196 0.7196 0 0.000828827 0.000828827 2.64011e-05 32.3941 5328.84 6995.26 
1244 0.5602 0.5602 0 0.000838719 0.000838719 1.20407e-05 23.8817 4205.94 5693.03 
5 0.0214 0.0214 0 6.41366e-05 6.41366e-05 8.00254e-07 43.3965 6603.23 11752.8 
45 9.3202 9.3202 0 0.0393894 0.0393894 9.48128e-05 393.105 29779.7 41562.1 
85 10.2336 10.2336 0 0.0425296 0.0425296 3.78059e-05 424.444 28238.3 38604.1 
125 10.638 10.638 0 0.0439774 0.0439774 6.70757e-05 438.894 26140.5 35873.4 
165 10.7534 10.7534 0 0.0444612 0.0444612 0.000101761 443.722 26460.3 36449.6 
205 10.673 10.673 0 0.0441316 0.0441316 8.94579e-05 440.432 25542.2 35098.2 
245 10.267 10.267 0 0.0425973 0.0425973 -6.79611e-06 425.12 26660 37043.3 
285 9.4162 9.4162 0 0.0396037 0.0396037 -1.53316e-05 395.244 29743.3 41104.1 
325 0.0302 0.0302 0 0.000105598 0.000105598 1.81459e-05 64.8521 9045.15 13588.4 
365 0.6182 0.6182 0 0.000812579 0.000812579 6.3641e-06 27.1805 4677.11 6193.2 
405 0.7502 0.7502 0 0.000764274 0.000764274 -1.47056e-05 33.5744 5354.86 7294.01 
445 0.8426 0.8426 0 0.000737867 0.000737867 -6.29183e-06 37.3267 5355.18 7411.66 
485 0.905 0.905 0 0.00074976 0.00074976 5.85102e-05 40.1563 5450.57 7330.27 
525 0.8804 0.8804 0 0.00060986 0.00060986 -1.72314e-05 38.69 4484.72 6153.68 
565 0.9064 0.9064 0 0.000652872 0.000652872 -2.77946e-05 39.9618 5117.62 6986.08 
605 0.8208 0.8208 0 0.00070995 0.00070995 -2.26408e-05 36.0455 4550.77 6055.94 
645 0.0008 0.0008 0 -2.1388e-06 -2.1388e-06 2.73461e-07 1.02378 70.8407 -39.8662 
685 0.126 0.126 0 -0.000510976 -0.000510976 -1.7294e-05 5.09953 404.08 633.4 
725 0.1706 0.1706 0 -0.000726185 -0.000726185 -1.62318e-05 7.2473 539.756 806.973 
765 0.2214 0.2214 0 -0.000956874 -0.000956874 -9.32407e-06 9.54958 754.425 1096.26 
805 0.2198 0.2198 0 -0.000930115 -0.000930115 -2.46415e-05 9.28253 665.244 998.823 
845 0.1916 0.1916 0 -0.000844075 -0.000844075 -5.60792e-06 8.42385 675.648 972.154 
885 0.1496 0.1496 0 -0.000629468 -0.000629468 4.89122e-06 6.28207 490.668 748.607 
925 0.0926 0.0926 0 -0.000361256 -0.000361256 -3.31863e-06 3.60533 275.349 446.328 
965 0.6618 0.6618 0 0.000900602 0.000900602 9.46273e-06 29.5344 4430.33 5781.41 
1005 0.8722 0.8722 0 0.000682746 0.000682746 -2.10326e-05 38.0026 4586.18 6292.78 
1045 0.9024 0.9024 0 0.000619271 0.000619271 1.19798e-05 39.5647 4456.47 6183.41 
1085 0.9056 0.9056 0 0.00068475 0.00068475 3.56437e-05 39.7995 5239.33 7054.27 
1125 0.8708 0.8708 0 0.000704115 0.000704115 5.95541e-05 38.0062 5412.55 7198.37 
1165 0.8174 0.8174 0 0.000761151 0.000761151 3.84451e-06 36.0728 5234.31 6918.86 
1205 0.7098 0.7098 0 0.000809678 0.000809678 1.7432e-05 31.5904 5036.59 6760.55 
1245 0.5652 0.5652 0 0.000868199 0.000868199 -1.92345e-05 23.9476 4336.37 5692.23 
6 0.0264 0.0264 0 9.48433e-05 9.48433e-05 8.34608e-06 58.9452 9626.73 12934.6 
46 9.3106 9.3106 0 0.0393357 0.0393357 -8.83056e-05 392.569 29889.7 40775.1 
86 10.3138 10.3138 0 0.0428868 0.0428868 4.00889e-05 428.01 27270.7 38571.5 
126 10.5584 10.5584 0 0.0435618 0.0435618 -0.00012171 434.746 25644.8 35202.2 
166 10.6188 10.6188 0 0.0438398 0.0438398 -8.15474e-05 437.52 25460.8 35074.9 
206 10.5254 10.5254 0 0.0435225 0.0435225 7.7636e-05 434.353 25496.8 34801.2 
246 10.3064 10.3064 0 0.042859 0.042859 -2.51732e-05 427.732 27246.6 37658.8 
286 9.3778 9.3778 0 0.0396218 0.0396218 0.000155406 395.424 29317.6 40679.6 
326 0.028 0.028 0 9.42972e-05 9.42972e-05 -3.03529e-06 59.0472 9168.09 15127.4 
366 0.6442 0.6442 0 0.000835334 0.000835334 -1.57575e-05 28.2742 4715.2 6185.8 
406 0.751 0.751 0 0.000742559 0.000742559 -1.20366e-05 33.6464 4906.41 6787.5 
446 0.842 0.842 0 0.000677134 0.000677134 2.68393e-06 37.1943 5104.8 6980.29 
486 0.8814 0.8814 0 0.000676678 0.000676678 3.39292e-05 38.4266 5044.1 7050.04 
526 0.8962 0.8962 0 0.000616109 0.000616109 -2.0437e-05 39.783 5018.13 6997.29 
566 0.909 0.909 0 0.000640765 0.000640765 1.02897e-05 39.8002 4553.26 6306.22 
606 0.7944 0.7944 0 0.000686173 0.000686173 3.20265e-05 34.6596 4714.73 6211.33 
646 0.0014 0.0014 0 -2.89875e-06 -2.89875e-06 -2.35741e-06 1.518 94.7141 375.802 
686 0.1268 0.1268 0 -0.000518225 -0.000518225 -3.56035e-06 5.17187 478.786 687.008 
726 0.18 0.18 0 -0.000751526 -0.000751526 1.7473e-06 7.50021 644.4 842.086 
766 0.2132 0.2132 0 -0.000901435 -0.000901435 -1.88286e-05 8.9963 865.732 1166.9 
806 0.203 0.203 0 -0.000890734 -0.000890734 -1.45481e-05 8.8895 716.297 1024.57 
846 0.189 0.189 0 -0.000798838 -0.000798838 2.00445e-05 7.97238 521.283 784.732 
886 0.1506 0.1506 0 -0.000627248 -0.000627248 6.3791e-06 6.25991 401.621 644.029 
926 0.088 0.088 0 -0.000337703 -0.000337703 5.12282e-06 3.37027 290.425 443.186 
966 0.6624 0.6624 0 0.000890887 0.000890887 -2.19312e-05 29.1044 4345.51 5691.16 
1006 0.8824 0.8824 0 0.000640376 0.000640376 -8.236e-06 38.5281 4716.92 6373.41 
1046 0.9316 0.9316 0 0.000683136 0.000683136 1.99674e-05 40.8266 5088.14 7075.44 
1086 0.9248 0.9248 0 0.000749308 0.000749308 2.57877e-05 40.9037 5092.58 7051.23 
1126 0.8444 0.8444 0 0.000665382 0.000665382 -4.08988e-06 37.0301 5128.53 6786.79 
1166 0.8088 0.8088 0 0.000721651 0.000721651 -6.81619e-05 35.8826 5433.66 7283.61 
1206 0.718 0.718 0 0.000785181 0.000785181 2.47426e-05 31.8689 5210.57 7142.54 
1246 0.5526 0.5526 0 0.000849533 0.000849533 -1.0024e-05 23.437 4108.77 5684.14 
7 0.0256 0.0256 0 9.97415e-05 9.97415e-05 2.19869e-06 55.8901 9947.93 15946.9 
47 9.4142 9.4142 0 0.0396734 0.0396734 8.41156e-05 395.94 29786.9 41381.1 
87 10.264 10.264 0 0.0426695 0.0426695 9.8119e-05 425.841 27263.1 37532.7 
127 10.4944 10.4944 0 0.0434541 0.0434541 -3.97544e-05 433.671 25886.8 35516 
167 10.6714 10.6714 0 0.044113 0.044113 -5.78391e-05 440.247 25158.6 34611.1 
207 10.539 10.539 0 0.0434301 0.0434301 0.000105946 433.432 24876.8 34777.6 
247 10.2118 10.2118 0 0.0425193 0.0425193 -3.34234e-06 424.342 27018.9 37332 
287 9.3724 9.3724 0 0.039567 0.039567 1.73116e-05 394.878 29109.4 41338.5 
327 0.0244 0.0244 0 7.90582e-05 7.90582e-05 3.55715e-06 48.5354 7041.89 8848.19 
367 0.6502 0.6502 0 0.000786863 0.000786863 1.75097e-05 29.0573 5026.28 6627.21 
407 0.7746 0.7746 0 0.000722542 0.000722542 -3.36963e-07 34.9384 5350.14 7137.9 
447 0.832 0.832 0 0.000685548 0.000685548 -8.98204e-05 36.899 5295.33 7028.36 
487 0.9036 0.9036 0 0.000661507 0.000661507 -7.17872e-05 39.5737 5470.93 7328.31 
527 0.9392 0.9392 0 0.000698966 0.000698966 2.76859e-05 40.8343 5233.35 7185.12 
567 0.9038 0.9038 0 0.000659248 0.000659248 -3.80418e-05 39.828 5025.92 6831.84 
607 0.8254 0.8254 0 0.000682847 0.000682847 -3.62835e-05 35.9557 4388.32 6044.16 
647 0.055 0.055 0 -0.000192556 -0.000192556 2.29472e-06 1.9217 112.866 222.91 
687 0.1308 0.1308 0 -0.000524995 -0.000524995 8.43269e-07 5.23944 462.401 676.412 
727 0.187 0.187 0 -0.000782613 -0.000782613 -2.79518e-08 7.81045 539.426 743.576 
767 0.218 0.218 0 -0.000943045 -0.000943045 -5.67718e-06 9.41156 742.168 1091.17 
807 0.2086 0.2086 0 -0.000908175 -0.000908175 -3.94398e-06 9.06357 747.682 1092.8 
847 0.1946 0.1946 0 -0.00082611 -0.00082611 1.25025e-05 8.24455 713.682 1015.9 
887 0.1604 0.1604 0 -0.000682723 -0.000682723 1.88129e-05 6.81356 448.937 683.73 
927 0.09 0.09 0 -0.000342544 -0.000342544 -3.84835e-07 3.41858 298.72 508.787 
967 0.6764 0.6764 0 0.000822725 0.000822725 3.41955e-05 29.5359 4256.72 5704.49 
1007 0.8752 0.8752 0 0.000669051 0.000669051 -2.4667e-05 38.058 4353.03 5942.4 
1047 0.9114 0.9114 0 0.000629064 0.000629064 7.49019e-06 39.7684 4615.72 6522.35 
1087 0.915 0.915 0 0.000624334 0.000624334 -1.26857e-06 40.5875 4900.25 6603.27 
1127 0.8846 0.8846 0 0.000721553 0.000721553 -3.29008e-05 38.9231 5333.59 7114.62 
1167 0.825 0.825 0 0.000764571 0.000764571 -5.56856e-06 36.1954 5358.25 7179.66 
1207 0.7034 0.7034 0 0.000771833 0.000771833 3.30077e-05 31.028 4887.71 6505.55 
1247 0.5436 0.5436 0 0.000834039 0.000834039 -4.3483e-06 22.6845 4131.71 5469.85 
8 0.037 0.037 0 0.00015174 0.00015174 -3.28556e-06 77.6904 13921.2 19914 
48 9.4346 9.4346 0 0.0397651 0.0397651 -0.000167236 396.854 30904.1 42099.4 
88 10.233 10.233 0 0.0425731 0.0425731 -3.94188e-05 424.878 27085.6 37690.8 
128 10.64 10.64 0 0.0437867 0.0437867 -0.000105588 436.99 25227 35504.8 
168 10.7536 10.7536 0 0.0442016 0.0442016 -4.7954e-05 441.131 25600.7 35694.1 
208 10.579 10.579 0 0.0437617 0.0437617 -6.32773e-05 436.74 25664.2 35857.7 
248 10.2676 10.2676 0 0.0426103 0.0426103 -5.20725e-05 425.25 27137.4 37888.8 
288 9.2754 9.2754 0 0.0392337 0.0392337 -6.18433e-05 391.551 30154.6 41799.9 
328 0.0146 0.0146 0 3.84e-05 3.84e-05 -4.17356e-06 29.8148 3418.33 4982.05 
368 0.6452 0.6452 0 0.000831949 0.000831949 1.51446e-05 28.5688 4901.86 6418.42 
408 0.75 0.75 0 0.000793564 0.000793564 3.84284e-06 33.3216 5456.44 7139.42 
448 0.8382 0.8382 0 0.000736776 0.000736776 2.11005e-05 37.0242 5368.37 7292.12 
488 0.8802 0.8802 0 0.000668349 0.000668349 -4.78545e-06 38.6271 4972.44 6560.25 
528 0.9154 0.9154 0 0.000635469 0.000635469 -4.11658e-06 40.2628 4891.98 6595.02 
568 0.9144 0.9144 0 0.000656562 0.000656562 -4.48458e-05 39.9835 4837.51 6529.12 
608 0.8116 0.8116 0 0.000710056 0.000710056 -2.29406e-05 35.3188 4826.1 6355.9 
648 0.05 0.05 0 -0.000182194 -0.000182194 4.82632e-06 1.81829 154.419 274.023 
688 0.1372 0.1372 0 -0.000552762 -0.000552762 1.11605e-05 5.51655 471.876 752.536 
728 0.176 0.176 0 -0.000738727 -0.000738727 -1.15876e-05 7.37247 518.41 784.55 
768 0.2228 0.2228 0 -0.000965011 -0.000965011 -1.30405e-05 9.63078 869.283 1228.97 
808 0.2014 0.2014 0 -0.000879157 -0.000879157 -2.20702e-05 8.77396 593.29 887.64 
848 0.2054 0.2054 0 -0.000873154 -0.000873154 1.89876e-05 8.71405 674.768 976.062 
888 0.1506 0.1506 0 -0.000605546 -0.000605546 1.3752e-05 6.04333 422.133 603.65 
928 0.0802 0.0802 0 -0.000307391 -0.000307391 2.09678e-07 3.06776 192.977 317.783 
968 0.6756 0.6756 0 0.000818604 0.000818604 4.47837e-05 30.2215 4260.99 5602.73 
1008 0.8946 0.8946 0 0.00065014 0.00065014 1.45536e-05 39.2828 4713.89 6431.59 
1048 0.9302 0.9302 0 0.000610278 0.000610278 1.96489e-05 40.9135 5038.54 7009.25 
1088 0.9154 0.9154 0 0.000672763 0.000672763 2.75201e-05 39.8951 5168.96 6927.13 
1128 0.8462 0.8462 0 0.000662 0.000662 -1.13067e-06 37.2964 4965.19 6710.14 
1168 0.8176 0.8176 0 0.000754498 0.000754498 5.22935e-05 36.291 5180.35 6886.77 
1208 0.6872 0.6872 0 0.000797992 0.000797992 -4.07373e-05 30.8185 5290.73 7005.4 
1248 0.5682 0.5682 0 0.000870246 0.000870246 1.29417e-05 23.6284 4124.71 5614.21 
9 0.043 0.043 0 0.000186261 0.000186261 -5.3769e-06 96.4998 16938.1 23983.9 
49 9.4642 9.4642 0 0.039844 0.039844 -4.57696e-05 397.642 29443.8 40781 
89 10.2776 10.2776 0 0.0427178 0.0427178 3.19283e-05 426.323 27387.1 37550 
129 10.6044 10.6044 0 0.0438596 0.0438596 -8.20339e-05 437.718 25912.8 35707.8 
169 10.7272 10.7272 0 0.0441656 0.0441656 9.9945e-05 440.771 25546.7 35613.5 
209 10.7508 10.7508 0 0.0445065 0.0445065 -0.00012069 444.174 26439.4 36694.6 
249 10.2468 10.2468 0 0.0425895 0.0425895 0.000106535 425.042 26473.5 36386 
289 9.171 9.171 0 0.0386782 0.0386782 -4.76123e-05 386.007 29038 40533.6 
329 0.0168 0.0168 0 3.74921e-05 3.74921e-05 -1.50599e-06 34.2451 3932.1 5945.81 
369 0.6532 0.6532 0 0.000814772 0.000814772 -1.11613e-05 28.4851 4780.58 6146.45 
409 0.7614 0.7614 0 0.00076045 0.00076045 3.48526e-05 34.1206 5148.97 7074.62 
449 0.8442 0.8442 0 0.00073193 0.00073193 -7.6323e-06 37.1333 5195.84 7052.2 
489 0.9076 0.9076 0 0.000686581 0.000686581 5.55837e-05 40.0989 5302.58 7228.1 
529 0.893 0.893 0 0.000626349 0.000626349 6.328e-06 39.2695 4585.64 6358.46 
569 0.8694 0.8694 0 0.000588344 0.000588344 -4.46959e-05 38.1908 4500.23 5896.93 
609 0.8168 0.8168 0 0.000695322 0.000695322 -1.5629e-05 35.6741 4516.64 6102.63 
649 0.0552 0.0552 0 -0.000196752 -0.000196752 -6.37197e-06 1.96358 111.531 188.55 
689 0.125 0.125 0 -0.000516353 -0.000516353 1.54972e-05 5.15319 328.994 552.492 
729 0.1786 0.1786 0 -0.000755624 -0.000755624 7.17894e-06 7.54111 674.523 977.868 
769 0.2098 0.2098 0 -0.000893351 -0.000893351 1.36796e-05 8.91562 855.408 1144.74 
809 0.2202 0.2202 0 -0.000939294 -0.000939294 -1.76312e-06 9.37413 745.565 1083.95 
849 0.2046 0.2046 0 -0.000858958 -0.000858958 -8.07269e-06 8.57237 662.651 956.627 
889 0.1522 0.1522 0 -0.000632293 -0.000632293 -7.47044e-07 6.31027 426.765 654.004 
929 0.077 0.077 0 -0.000292506 -0.000292506 9.47637e-06 2.9192 145.527 296.027 
969 0.7016 0.7016 0 0.000817371 0.000817371 -1.17075e-06 30.6766 4445.11 5996.96 
1009 0.8768 0.8768 0 0.000639328 0.000639328 -2.48359e-05 38.3605 4433.85 6104.24 
1049 0.9122 0.9122 0 0.000636149 0.000636149 -1.12795e-05 39.6601 4615.88 6273.47 
1089 0.9022 0.9022 0 0.000700089 0.000700089 1.26111e-05 39.5481 5022.5 6708.93 
1129 0.8614 0.8614 0 0.000681454 0.000681454 1.51772e-05 38.1235 5435.4 7152.54 
1169 0.8066 0.8066 0 0.000715847 0.000715847 2.83579e-06 36.0588 4996.55 6576.94 
1209 0.7114 0.7114 0 0.000812762 0.000812762 -5.06494e-06 31.6824 5213.61 7046.47 
1249 0.5478 0.5478 0 0.000878627 0.000878627 1.82708e-05 22.7325 4182.54 5656.48 
10 0.0464 0.0464 0 0.000199397 0.000199397 1.29773e-05 100.495 14265.8 22189 
50 9.4722 9.4722 0 0.0397997 0.0397997 9.71259e-05 397.2 29320.1 41017 
90 10.3316 10.3316 0 0.0430052 0.0430052 -5.59387e-06 429.191 27763.8 38303.6 
130 10.6324 10.6324 0 0.0439575 0.0439575 8.51705e-05 438.695 26355.1 35879.9 
170 10.7806 10.7806 0 0.0444364 0.0444364 0.00010387 443.474 25558.3 35001.7 
210 10.5528 10.5528 0 0.0437122 0.0437122 -3.50871e-05 436.246 25947.4 35824.3 
250 10.265 10.265 0 0.0427634 0.0427634 -8.85079e-05 426.778 27428.1 37888.7 
290 9.2032 9.2032 0 0.0390267 0.0390267 -9.04668e-05 389.485 29816.8 41258.1 
330 0.0146 0.0146 0 3.19409e-05 3.19409e-05 -5.14408e-06 27.8379 2375.32 5525.06 
370 0.6756 0.6756 0 0.00083985 0.00083985 1.41147e-05 29.7023 5195.81 6948.41 
410 0.7666 0.7666 0 0.000777869 0.000777869 2.744e-05 34.2573 5207.9 7136.3 
450 0.8634 0.8634 0 0.000716184 0.000716184 2.38403e-05 38.3612 5056.79 6858.15 
490 0.8738 0.8738 0 0.000675585 0.000675585 8.86244e-06 38.6442 5145.46 6791.06 
530 0.9056 0.9056 0 0.000639057 0.000639057 -1.59347e-05 39.611 4797.11 6643.96 
570 0.9042 0.9042 0 0.000647622 0.000647622 6.90838e-05 39.6701 4905.62 6568.28 
610 0.8102 0.8102 0 0.000733233 0.000733233 3.06567e-06 35.9827 4382.02 6032.49 
650 0.0616 0.0616 0 -0.000227124 -0.000227124 -1.54098e-06 2.26669 127.837 276.095 
690 0.1322 0.1322 0 -0.000535106 -0.000535106 -8.88429e-06 5.34034 458.928 693.51 
730 0.1942 0.1942 0 -0.00082155 -0.00082155 9.20471e-06 8.19904 705.183 1023.94 
770 0.2164 0.2164 0 -0.000933819 -0.000933819 5.88706e-06 9.31948 799.535 1067.54 
810 0.2184 0.2184 0 -0.000939722 -0.000939722 -6.62865e-06 9.3784 757.945 1082.7 
850 0.1792 0.1792 0 -0.000755657 -0.000755657 -2.44125e-05 7.54143 594.904 871.001 
890 0.1516 0.1516 0 -0.00062917 -0.00062917 -1.79749e-05 6.2791 548.959 817.393 
930 0.0758 0.0758 0 -0.000294639 -0.000294639 -2.63276e-06 2.94049 297.784 456.789 
970 0.7002 0.7002 0 0.000778234 0.000778234 2.8802e-05 31.0876 4556.76 5968.95 
1010 0.9032 0.9032 0 0.000668024 0.000668024 -9.01608e-06 39.5527 4674.22 6383.3 
1050 0.9154 0.9154 0 0.000709078 0.000709078 4.77759e-05 39.893 5063.17 7011.58 
1090 0.8912 0.8912 0 0.000647747 0.000647747 8.47583e-06 39.0392 4971.67 6806.51 
1130 0.86 0.86 0 0.000703578 0.000703578 -4.82837e-05 38.3838 5393.19 7378.8 
1170 0.7946 0.7946 0 0.000712129 0.000712129 -2.40884e-05 35.4924 5043.2 6691.06 
1210 0.6904 0.6904 0 0.000810197 0.000810197 1.92628e-05 30.0149 4907.1 6436.7 
1250 0.5342 0.5342 0 0.000867156 0.000867156 -2.27084e-05 22.3399 4068.72 5501.44 
11 0.0584 0.0584 0 0.000262389 0.000262389 3.27143e-06 128.491 23263.6 32622.7 
51 9.6088 9.6088 0 0.0403419 0.0403419 -2.86532e-05 402.611 30497 41685.8 
91 10.3168 10.3168 0 0.0426915 0.0426915 4.96789e-05 426.06 26707.9 37134.3 
131 10.6462 10.6462 0 0.0440919 0.0440919 -3.82397e-05 440.036 25743.3 35496.2 
171 10.636 10.636 0 0.0438416 0.0438416 2.13298e-05 437.538 25345.1 35440 
211 10.5976 10.5976 0 0.0437798 0.0437798 -7.79243e-05 436.921 25891.5 35868.5 
251 10.1978 10.1978 0 0.0424618 0.0424618 -3.69698e-05 423.767 26416.5 36945.3 
291 9.16 9.16 0 0.0387003 0.0387003 0.000241761 386.228 29610 41439.1 
331 0.0112 0.0112 0 2.45878e-05 2.45878e-05 -1.03737e-06 19.1463 1747.97 3625.27 
371 0.6658 0.6658 0 0.000861082 0.000861082 9.09727e-06 29.4211 4789.82 6239.69 
411 0.7946 0.7946 0 0.000787133 0.000787133 1.31004e-06 35.3285 5539.34 7203.84 
451 0.8336 0.8336 0 0.000732528 0.000732528 -2.93665e-05 36.7498 5224.87 7154.14 
491 0.883 0.883 0 0.000698002 0.000698002 2.02583e-05 38.7428 4992.64 6769.39 
531 0.9112 0.9112 0 0.000628307 0.000628307 -3.38509e-05 39.7881 4846.61 6619.68 
571 0.8974 0.8974 0 0.000639464 0.000639464 1.30561e-05 38.9397 4796.36 6436.47 
611 0.8002 0.8002 0 0.000780296 0.000780296 1.52636e-05 35.1512 4567.76 6394.63 
651 0.0626 0.0626 0 -0.00021999 -0.00021999 1.61798e-06 2.1955 128.7 253.507 
691 0.1448 0.1448 0 -0.000595568 -0.000595568 8.55283e-07 5.94375 578.15 755.929 
731 0.1834 0.1834 0 -0.000778568 -0.000778568 2.48762e-05 7.77009 574.651 868.086 
771 0.2142 0.2142 0 -0.000888861 -0.000888861 3.49165e-06 8.87081 599.499 914.082 
811 0.206 0.206 0 -0.000879236 -0.000879236 5.8608e-06 8.77475 636.252 895.292 
851 0.1894 0.1894 0 -0.000810956 -0.000810956 -3.4294e-06 8.09332 656.562 979.806 
891 0.1366 0.1366 0 -0.000569649 -0.000569649 -8.80171e-06 5.68509 372.95 647.289 
931 0.0784 0.0784 0 -0.000296362 -0.000296362 -7.51628e-07 2.95768 213.457 355.75 
971 0.7342 0.7342 0 0.000802227 0.000802227 -8.60242e-06 32.3287 4537.87 6179.7 
1011 0.8984 0.8984 0 0.000614318 0.000614318 -5.12801e-06 39.1122 4727.87 6422.07 
1051 0.9068 0.9068 0 0.000609073 0.000609073 -5.23961e-05 40.0328 4940.96 6857.38 
1091 0.9046 0.9046 0 0.000668363 0.000668363 -1.96074e-05 40.1482 4976.78 6825.99 
1131 0.8524 0.8524 0 0.00070498 0.00070498 -5.46532e-06 37.4395 5137.13 6858.47 
1171 0.7838 0.7838 0 0.000674816 0.000674816 3.41689e-05 34.6779 4928.48 6683.65 
1211 0.705 0.705 0 0.000819316 0.000819316 -9.83386e-06 31.4585 5290.77 6742.06 
1251 0.5262 0.5262 0 0.000850673 0.000850673 -1.701e-05 21.6046 3664.43 5116.24 
12 0.0652 0.0652 0 0.000297153 0.000297153 6.43086e-06 143.874 26031.7 34908.4 
52 9.533 9.533 0 0.0402065 0.0402065 0.000120309 401.26 28513.3 39960.3 
92 10.4004 10.4004 0 0.0431802 0.0431802 -9.36037e-05 430.937 27254.9 37604.7 
132 10.6344 10.6344 0 0.044 0.044 -2.56491e-05 439.119 26682.9 36261.3 
172 10.687 10.687 0 0.0439538 0.0439538 -0.000112776 438.658 25657.6 35680.3 
212 10.5012 10.5012 0 0.0434691 0.0434691 -3.30913e-05 433.821 25613.7 35392.2 
252 10.155 10.155 0 0.0421972 0.0421972 -0.000136352 421.127 27302.8 37366.7 
292 9.1712 9.1712 0 0.0388298 0.0388298 4.87039e-05 387.52 30830 42929.4 
332 0.4724 0.4724 0 0.000759822 0.000759822 2.14565e-05 17.5032 2575.58 3982.61 
372 0.6946 0.6946 0 0.000861961 0.000861961 -4.70868e-05 30.6763 5171.15 6641.54 
412 0.778 0.778 0 0.000772142 0.000772142 -2.20708e-06 34.6182 5256.66 6772.14 
452 0.8514 0.8514 0 0.000691901 0.000691901 -2.3532e-05 37.3512 5416.52 7321.44 
492 0.9002 0.9002 0 0.00066263 0.00066263 -1.18226e-05 39.4785 4848.62 6638.96 
532 0.9254 0.9254 0 0.000686817 0.000686817 -3.60857e-05 40.4107 4887.82 6576.13 
572 0.8836 0.8836 0 0.000670485 0.000670485 8.88459e-06 38.6076 4521.69 6266.59 
612 0.78 0.78 0 0.000741808 0.000741808 3.2866e-05 34.0551 4312.72 5908.17 
652 0.0594 0.0594 0 -0.000220734 -0.000220734 6.26086e-06 2.20291 113.718 215.413 
692 0.1518 0.1518 0 -0.000623758 -0.000623758 5.51911e-07 6.22509 445.974 671.156 
732 0.1866 0.1866 0 -0.000782345 -0.000782345 -1.54973e-05 7.80778 569.214 852.915 