ITEM: TIMESTEP
25000
ITEM: NUMBER OF SURFS
1248
ITEM: BOX BOUNDS oo rr pp
0 0.3
0 0.3
-0.5 0.5
ITEM: SURFS id f_4[1] f_4[2] f_4[3] f_4[4] f_4[5] f_4[6] f_4[7] f_4[8] f_4[9] 
1 0.107 0.107 0 0.000252161 0.000252161 -4.62538e-06 21.3079 3927 5804.76 
41 9.1714 9.1714 0 0.038694 0.038694 5.51199e-05 386.94 30318.7 41627.2 
81 10.1802 10.1802 0 0.0424177 0.0424177 -8.76396e-05 424.177 26678.2 37095 
121 10.6008 10.6008 0 0.043687 0.043687 6.4719e-05 436.87 25337 35215.2 
161 10.6298 10.6298 0 0.0439454 0.0439454 -3.65046e-05 439.454 25688 35602.5 
201 10.6258 10.6258 0 0.0438624 0.0438624 0.000113958 438.624 25536.6 35601.5 
241 10.343 10.343 0 0.0429828 0.0429828 -6.38963e-05 429.828 27051.7 37753.6 
281 9.3918 9.3918 0 0.0395687 0.0395687 -9.27042e-06 395.687 29706.4 40955.2 
321 0.417 0.417 0 0.0017058 0.0017058 -1.76474e-05 91.0057 16196.6 22152.2 
361 0.6562 0.6562 0 0.000889955 0.000889955 2.80218e-05 28.7763 4836.03 6314.81 
401 0.7488 0.7488 0 0.000729568 0.000729568 7.01938e-06 33.5356 4681.17 6357.1 
441 0.8384 0.8384 0 0.000695046 0.000695046 -9.37632e-06 37.477 5308.18 7298.51 
481 0.9088 0.9088 0 0.000666728 0.000666728 -1.39204e-05 39.9487 5367.67 7392.66 
521 0.929 0.929 0 0.00063313 0.00063313 8.9944e-06 40.8185 4721.66 6671.68 
561 0.8988 0.8988 0 0.000643324 0.000643324 4.26306e-05 39.1862 4651.29 6488.1 
601 0.807 0.807 0 0.000732172 0.000732172 2.46669e-06 35.8158 4700.97 6217.61 
641 0.0534 0.0534 0 -0.000183776 -0.000183776 5.62345e-06 1.83776 72.0135 155.669 
681 0.1304 0.1304 0 -0.000537488 -0.000537488 -1.34277e-06 5.37488 518.375 763.264 
721 0.1818 0.1818 0 -0.000765131 -0.000765131 2.75394e-05 7.65131 690.562 928.768 
761 0.215 0.215 0 -0.000923966 -0.000923966 1.05668e-05 9.23966 895.65 1148.22 
801 0.2174 0.2174 0 -0.00092426 -0.00092426 -1.51153e-05 9.2426 753.046 1045.88 
841 0.1994 0.1994 0 -0.000821557 -0.000821557 -6.33285e-09 8.21557 644.905 918.199 
881 0.149 0.149 0 -0.000622872 -0.000622872 -1.55738e-06 6.22872 367.876 638.524 
921 0.0812 0.0812 0 -0.000327724 -0.000327724 -1.26673e-05 3.27724 199.527 335.055 
961 0.7056 0.7056 0 0.000818599 0.000818599 1.72964e-05 31.6288 4531.87 6012.43 
1001 0.9044 0.9044 0 0.000683488 0.000683488 1.51626e-05 39.7512 4734.9 6409.77 
1041 0.9118 0.9118 0 0.000683944 0.000683944 -8.84024e-07 39.8191 4990.07 6946.09 
1081 0.8918 0.8918 0 0.000639068 0.000639068 -2.22627e-05 39.4589 5042.1 6741.18 
1121 0.8486 0.8486 0 0.00067342 0.00067342 1.57682e-05 37.0922 5027.19 6941.19 
1161 0.8154 0.8154 0 0.000792322 0.000792322 -4.70566e-06 35.7403 5383.83 7227.61 
1201 0.7042 0.7042 0 0.000848502 0.000848502 1.06273e-05 31.6583 5401 7093.71 
1241 0.5408 0.5408 0 0.00091557 0.00091557 5.77139e-07 22.3991 4108.97 5680.18 
2 0.1244 0.1244 0 0.000269271 0.000269271 -3.169e-06 25.4247 4502 6690.32 
42 9.2536 9.2536 0 0.0390502 0.0390502 -0.000111686 390.502 30369.2 42086.8 
82 10.2912 10.2912 0 0.0427023 0.0427023 -2.9685e-05 427.023 27482.3 37706.2 
122 10.5392 10.5392 0 0.0436104 0.0436104 3.62154e-05 436.104 26171.2 36118.9 
162 10.7474 10.7474 0 0.0442704 0.0442704 5.61299e-05 442.704 26260.7 36202.7 
202 10.6192 10.6192 0 0.0438783 0.0438783 -9.3359e-05 438.783 26685.1 36666.8 
242 10.2448 10.2448 0 0.0425252 0.0425252 0.000177119 425.252 25941.5 36754.4 
282 9.4288 9.4288 0 0.0395656 0.0395656 0.000127777 395.656 29829.9 40943.3 
322 0.3346 0.3346 0 0.00127601 0.00127601 8.69494e-06 70.8963 13113.7 18057.8 
362 0.6628 0.6628 0 0.000911043 0.000911043 -3.64795e-05 28.7187 5168.25 6873.13 
402 0.7648 0.7648 0 0.000754288 0.000754288 -5.57429e-06 33.992 5470.65 7293.32 
442 0.861 0.861 0 0.000767219 0.000767219 -1.33402e-05 37.9488 5525.35 7459.24 
482 0.884 0.884 0 0.000704289 0.000704289 3.9447e-05 38.55 5112.03 6814.83 
522 0.9286 0.9286 0 0.000703016 0.000703016 6.57264e-06 40.5667 5072.81 6928.45 
562 0.884 0.884 0 0.000669222 0.000669222 -2.23471e-05 38.2622 4618.21 6410.86 
602 0.8158 0.8158 0 0.00062445 0.00062445 -2.18287e-05 36.0194 4496.17 6245.9 
642 0.048 0.048 0 -0.000170414 -0.000170414 3.99434e-06 1.70414 157.542 255.203 
682 0.139 0.139 0 -0.000584913 -0.000584913 1.13167e-05 5.84913 417.711 568.987 
722 0.187 0.187 0 -0.000780876 -0.000780876 -5.42451e-06 7.80876 587.814 847.518 
762 0.2154 0.2154 0 -0.00093566 -0.00093566 -6.7161e-07 9.3566 822.438 1122.05 
802 0.207 0.207 0 -0.00089648 -0.00089648 -8.58554e-06 8.9648 656.65 1002.41 
842 0.1898 0.1898 0 -0.000803731 -0.000803731 -1.8273e-05 8.03731 639.893 984.461 
882 0.1544 0.1544 0 -0.000667455 -0.000667455 -5.7853e-06 6.67455 517.431 797.226 
922 0.0796 0.0796 0 -0.00031014 -0.00031014 -1.53018e-06 3.1014 225.588 388.107 
962 0.7302 0.7302 0 0.000783251 0.000783251 7.7445e-06 32.3028 4421.66 5902.75 
1002 0.9036 0.9036 0 0.000649921 0.000649921 1.46293e-05 39.5914 4674.26 6408.16 
1042 0.901 0.901 0 0.000673229 0.000673229 -4.80699e-05 39.7252 5066.13 6984.85 
1082 0.8796 0.8796 0 0.000691309 0.000691309 -2.61202e-05 39.1797 5090.96 6766.24 
1122 0.8716 0.8716 0 0.000666246 0.000666246 4.43489e-05 37.784 5072.88 6988.81 
1162 0.8094 0.8094 0 0.000762127 0.000762127 1.0255e-05 35.5545 5006.39 6755.48 
1202 0.7018 0.7018 0 0.000802741 0.000802741 1.42003e-05 30.8036 5240.28 6773.81 
1242 0.5458 0.5458 0 0.00089173 0.00089173 -1.05398e-05 22.4131 3930.43 5509.34 
3 0.1472 0.1472 0 0.000429459 0.000429459 -9.28331e-06 29.9663 5948.06 8340.98 
43 9.2774 9.2774 0 0.0392095 0.0392095 -3.38876e-05 392.095 30518 42527.3 
83 10.2414 10.2414 0 0.0425367 0.0425367 6.31787e-05 425.367 26949.4 38081.9 
123 10.545 10.545 0 0.0437073 0.0437073 8.88915e-05 437.073 25469.4 35807.5 
163 10.7146 10.7146 0 0.0440817 0.0440817 -7.11803e-05 440.817 25435 35988 
203 10.55 10.55 0 0.0435607 0.0435607 0.000111779 435.607 25589.3 35985.2 
243 10.299 10.299 0 0.0427062 0.0427062 -0.000103082 427.062 27443 37447.4 
283 9.4014 9.4014 0 0.0397064 0.0397064 -7.59037e-05 397.064 29842.1 41393.4 
323 0.2758 0.2758 0 0.000970006 0.000970006 3.43807e-06 58.1279 9889.85 14617.7 
363 0.6696 0.6696 0 0.000826266 0.000826266 -9.80284e-06 29.6125 5045.33 6718.8 
403 0.8042 0.8042 0 0.000764137 0.000764137 -1.58295e-06 36.0313 5609.06 7520.81 
443 0.8512 0.8512 0 0.000717877 0.000717877 -2.26788e-06 37.8964 5228.43 6993.7 
483 0.893 0.893 0 0.000618923 0.000618923 -4.82196e-06 39.1435 5037.73 6887.39 
523 0.9208 0.9208 0 0.000659228 0.000659228 -3.69333e-05 40.5099 5232.03 7324.54 
563 0.906 0.906 0 0.000642743 0.000642743 2.89746e-06 39.9855 4776.76 6644.13 
603 0.7988 0.7988 0 0.000749504 0.000749504 -2.87705e-05 34.7434 4338.42 6032.1 
643 0.0576 0.0576 0 -0.000208153 -0.000208153 2.51121e-06 2.08153 175.27 306.163 
683 0.1346 0.1346 0 -0.0005494 -0.0005494 -2.0939e-05 5.494 365.086 616.138 
723 0.1824 0.1824 0 -0.000772832 -0.000772832 4.29959e-06 7.72832 595.487 952.311 
763 0.2118 0.2118 0 -0.000893993 -0.000893993 2.44551e-05 8.93993 695.175 1017.41 
803 0.2168 0.2168 0 -0.000934918 -0.000934918 -9.46345e-06 9.34918 707.52 1014.91 
843 0.1936 0.1936 0 -0.000817925 -0.000817925 2.02456e-05 8.17925 632.895 927.272 
883 0.1366 0.1366 0 -0.000573267 -0.000573267 -7.66411e-06 5.73267 547.68 795.574 
923 0.087 0.087 0 -0.000333698 -0.000333698 5.69642e-06 3.33698 170.226 306.617 
963 0.7416 0.7416 0 0.000793339 0.000793339 2.97256e-06 32.4055 4176.71 5798.56 
1003 0.898 0.898 0 0.000642542 0.000642542 1.63622e-05 38.7588 4786 6462.02 
1043 0.8994 0.8994 0 0.000616422 0.000616422 -1.44759e-05 39.7063 4611.76 6392.84 
1083 0.8934 0.8934 0 0.000680866 0.000680866 1.85095e-05 39.1901 4922.1 6805.74 
1123 0.8244 0.8244 0 0.000703527 0.000703527 3.16569e-05 36.3589 5176.38 6887.13 
1163 0.803 0.803 0 0.000791912 0.000791912 -3.36999e-06 35.633 5227.11 6989.61 
1203 0.6958 0.6958 0 0.000773994 0.000773994 1.79096e-05 31.0424 4818.64 6385.78 
1243 0.5396 0.5396 0 0.000893566 0.000893566 -1.58962e-05 21.763 3720.28 5157.67 
4 0.175 0.175 0 0.000539688 0.000539688 -5.89476e-06 36.4371 6915.13 10016.2 
44 9.319 9.319 0 0.0393722 0.0393722 -8.14974e-05 393.722 30584.7 41991.6 
84 10.2758 10.2758 0 0.0428576 0.0428576 0.000146404 428.576 26765.8 36981.1 
124 10.6552 10.6552 0 0.0440516 0.0440516 -3.08269e-05 440.516 25748.9 35447.8 
164 10.8052 10.8052 0 0.0445018 0.0445018 -7.72206e-05 445.018 25202.1 35348.1 
204 10.549 10.549 0 0.0437327 0.0437327 -4.93e-05 437.327 25997.6 36127.2 
244 10.2368 10.2368 0 0.0426014 0.0426014 8.87817e-05 426.014 27046.8 37494.3 
284 9.2282 9.2282 0 0.0388588 0.0388588 3.25333e-05 388.588 30248.9 40956.5 
324 0.226 0.226 0 0.000762557 0.000762557 -1.41067e-05 46.891 8536.74 12880.3 
364 0.6674 0.6674 0 0.000889518 0.000889518 -2.1233e-06 29.3598 4948.26 6521.41 
404 0.7504 0.7504 0 0.000745657 0.000745657 -1.77301e-05 33.9587 5081.61 6825.36 
444 0.827 0.827 0 0.000680242 0.000680242 -6.1505e-05 36.5408 5152.7 7212.64 
484 0.9058 0.9058 0 0.00068529 0.00068529 -1.90904e-05 40.3718 5153.3 6983.82 
524 0.8928 0.8928 0 0.000651402 0.000651402 -5.27483e-05 39.3244 4962.62 6850.23 
564 0.9002 0.9002 0 0.000663015 0.000663015 1.86684e-05 39.6432 4871.24 6632.92 
604 0.8154 0.8154 0 0.000726214 0.000726214 2.80698e-05 36.1194 4312.88 5961.37 
644 0.0604 0.0604 0 -0.000208921 -0.000208921 -7.75127e-06 2.08921 161.189 273.801 
684 0.1246 0.1246 0 -0.000494157 -0.000494157 -1.73911e-05 4.94157 365.436 598.107 
724 0.1888 0.1888 0 -0.000806658 -0.000806658 1.49487e-05 8.06658 600.774 879.763 
764 0.2264 0.2264 0 -0.000971261 -0.000971261 -2.05759e-06 9.71261 856.568 1132.73 
804 0.2106 0.2106 0 -0.000903382 -0.000903382 -6.12139e-06 9.03382 775.184 1070.22 
844 0.187 0.187 0 -0.000803635 -0.000803635 -8.15925e-06 8.03635 697.993 945.824 
884 0.1462 0.1462 0 -0.0006044 -0.0006044 2.0374e-05 6.044 498.004 767.725 
924 0.0764 0.0764 0 -0.000286962 -0.000286962 -4.89438e-06 2.86962 247.264 411.259 
964 0.7398 0.7398 0 0.000750512 0.000750512 -4.21827e-05 32.607 4408.58 5813.86 
1004 0.9006 0.9006 0 0.000615739 0.000615739 -4.43742e-05 39.45 4586.23 6284.56 
1044 0.9142 0.9142 0 0.000676133 0.000676133 -2.88348e-05 40.6662 4797.91 6618.57 
1084 0.8984 0.8984 0 0.000727102 0.000727102 4.18054e-06 39.3222 5060.7 6795.52 
1124 0.856 0.856 0 0.000690302 0.000690302 -1.37618e-05 38.1102 4914.66 6719.46 
1164 0.8064 0.8064 0 0.000788849 0.000788849 5.05273e-05 36.0205 5298.45 7043.88 
1204 0.6962 0.6962 0 0.000807445 0.000807445 -3.48421e-05 30.4392 5132.17 6862.71 
1244 0.5402 0.5402 0 0.000918099 0.000918099 2.41733e-05 21.8242 3834.37 5324.44 
5 0.218 0.218 0 0.000738234 0.000738234 -8.96748e-06 45.3272 7510.44 10978.3 
45 9.2872 9.2872 0 0.0392435 0.0392435 -0.000115794 392.435 29242.6 40580.5 
85 10.1798 10.1798 0 0.042205 0.042205 -2.72306e-05 422.05 26787.5 37810.2 
125 10.565 10.565 0 0.0435681 0.0435681 2.80314e-05 435.681 25401.4 35119.8 
165 10.691 10.691 0 0.0440644 0.0440644 0.000100224 440.644 26255.5 35938 
205 10.6532 10.6532 0 0.0440246 0.0440246 -0.000125614 440.246 26651.5 36417.6 
245 10.2416 10.2416 0 0.0427408 0.0427408 -0.000149117 427.408 26702 37265.5 
285 9.3776 9.3776 0 0.0396552 0.0396552 2.80122e-05 396.552 29773.5 41265.5 
325 0.1796 0.1796 0 0.000541159 0.000541159 3.87805e-05 37.4024 5938.63 8846.43 
365 0.6772 0.6772 0 0.000892641 0.000892641 3.68811e-05 30.0035 5296.84 6968.87 
405 0.7876 0.7876 0 0.000721489 0.000721489 -3.51793e-05 35.5971 5325.38 7031.68 
445 0.862 0.862 0 0.000701579 0.000701579 -1.81455e-05 38.2981 5434.16 7607.69 
485 0.8698 0.8698 0 0.000679592 0.000679592 -3.14325e-05 38.405 5194.89 6885.19 
525 0.8934 0.8934 0 0.000673263 0.000673263 -4.36532e-05 39.2844 4688.05 6302.38 
565 0.8982 0.8982 0 0.000663447 0.000663447 -1.28592e-06 39.5237 4881.53 6513.24 
605 0.7872 0.7872 0 0.000685377 0.000685377 2.08447e-05 34.1659 4362.73 5944.86 
645 0.0644 0.0644 0 -0.000239416 -0.000239416 2.49745e-06 2.39416 204.581 329.012 
685 0.1372 0.1372 0 -0.000579336 -0.000579336 -3.27764e-06 5.79336 534.754 762.971 
725 0.1852 0.1852 0 -0.000782431 -0.000782431 6.78223e-06 7.82431 534.61 882.495 
765 0.2158 0.2158 0 -0.000924554 -0.000924554 -7.50191e-07 9.24554 681.147 994.285 
805 0.2134 0.2134 0 -0.00093244 -0.00093244 1.69401e-07 9.3244 678.619 984.028 
845 0.2016 0.2016 0 -0.000863295 -0.000863295 7.55625e-07 8.63295 745.116 1066.88 
885 0.1376 0.1376 0 -0.000564979 -0.000564979 9.45284e-08 5.64979 396.731 615.594 
925 0.075 0.075 0 -0.000283917 -0.000283917 -1.35376e-05 2.83917 259.64 379.347 
965 0.769 0.769 0 0.000759462 0.000759462 -4.49348e-05 34.0584 4727.96 6380.07 
1005 0.9108 0.9108 0 0.000650694 0.000650694 1.6083e-05 40.0228 4653.06 6234.14 
1045 0.914 0.914 0 0.000649745 0.000649745 -4.21276e-06 39.9455 4890.85 6840.88 
1085 0.905 0.905 0 0.000634068 0.000634068 4.56808e-06 39.907 5195.21 6955.12 
1125 0.8804 0.8804 0 0.000697591 0.000697591 -2.24979e-05 39.3459 5395.36 7207.47 
1165 0.8254 0.8254 0 0.000789343 0.000789343 -2.33764e-05 37.0216 5563.6 7385.4 
1205 0.6902 0.6902 0 0.000817288 0.000817288 -1.83481e-06 30.4244 4975.71 6794.38 
1245 0.5128 0.5128 0 0.000881881 0.000881881 1.51904e-05 20.2045 3530.83 5077.3 
6 0.2564 0.2564 0 0.00091945 0.00091945 8.2928e-06 53.605 8768.6 13113.3 
46 9.3 9.3 0 0.0392923 0.0392923 -0.000139326 392.923 30058.8 41399.7 
86 10.2238 10.2238 0 0.0424598 0.0424598 3.51988e-05 424.598 26792.8 37101.5 
126 10.6466 10.6466 0 0.0439422 0.0439422 4.07014e-05 439.422 25949.5 35808.4 
166 10.5926 10.5926 0 0.0438795 0.0438795 -4.02969e-05 438.795 24724.6 34857.9 
206 10.564 10.564 0 0.0437249 0.0437249 -0.000121584 437.249 25965.1 35966 
246 10.1182 10.1182 0 0.0421348 0.0421348 -7.70891e-06 421.348 26758.5 36564.2 
286 9.1718 9.1718 0 0.0387686 0.0387686 5.81084e-05 387.686 29083.6 40511 
326 0.1392 0.1392 0 0.000390642 0.000390642 2.09953e-05 28.0677 5290.55 7494.02 
366 0.6768 0.6768 0 0.000832707 0.000832707 -1.87542e-05 29.8426 5127.1 6811.6 
406 0.7848 0.7848 0 0.000821877 0.000821877 -3.3701e-05 35.1703 5717.88 7778.81 
446 0.8462 0.8462 0 0.000740608 0.000740608 -4.56861e-05 37.5839 5366.44 7027.91 
486 0.8792 0.8792 0 0.000660216 0.000660216 -2.01628e-06 38.8284 4636.41 6581.96 
526 0.9074 0.9074 0 0.000601759 0.000601759 9.42598e-06 39.1833 4983.14 6861.57 
566 0.8708 0.8708 0 0.000658603 0.000658603 4.40944e-05 38.2678 4716.72 6574.33 
606 0.7892 0.7892 0 0.000731732 0.000731732 -1.51814e-05 34.7468 4170.25 5730.49 
646 0.063 0.063 0 -0.000242458 -0.000242458 -3.82277e-06 2.42458 208.136 331.825 
686 0.1526 0.1526 0 -0.000624006 -0.000624006 -9.40339e-06 6.24006 410.471 661.89 
726 0.1792 0.1792 0 -0.000746064 -0.000746064 -3.75218e-06 7.46064 581.612 890.516 
766 0.2084 0.2084 0 -0.000918279 -0.000918279 -4.27522e-06 9.18279 809.535 1102.24 
806 0.2142 0.2142 0 -0.000927614 -0.000927614 -1.78087e-05 9.27614 762.019 1027.65 
846 0.1842 0.1842 0 -0.000781158 -0.000781158 1.83397e-05 7.81158 653.116 1025.3 
886 0.1364 0.1364 0 -0.000585546 -0.000585546 1.29132e-05 5.85546 434.678 699.807 
926 0.0718 0.0718 0 -0.000271511 -0.000271511 -8.27936e-06 2.71511 155.494 271.928 
966 0.753 0.753 0 0.000693787 0.000693787 1.90227e-05 33.2646 4545.78 5938.08 
1006 0.8946 0.8946 0 0.000627879 0.000627879 -9.29209e-05 39.0313 4806.69 6518.51 
1046 0.925 0.925 0 0.000637527 0.000637527 7.88896e-07 40.9917 5087.04 6968.61 
1086 0.9074 0.9074 0 0.000631213 0.000631213 1.76798e-06 39.8521 4817.71 6709.48 
1126 0.8622 0.8622 0 0.000713147 0.000713147 -5.33092e-06 38.1485 5531.79 7563.8 
1166 0.7858 0.7858 0 0.000735758 0.000735758 -4.52127e-06 34.8979 5020.11 6795.6 
1206 0.6708 0.6708 0 0.000792436 0.000792436 -1.90759e-05 29.4783 4940.42 6697.15 
1246 0.5096 0.5096 0 0.000937333 0.000937333 -6.40188e-06 20.0972 3779.48 5083.86 
7 0.323 0.323 0 0.00121661 0.00121661 4.76972e-07 67.0329 11415 16012.2 
47 9.4488 9.4488 0 0.0398023 0.0398023 0.000111911 398.023 29618.6 40925.7 
87 10.2764 10.2764 0 0.0425896 0.0425896 -0.000131369 425.896 27103.6 37360.4 
127 10.6016 10.6016 0 0.0437551 0.0437551 -9.30622e-05 437.551 26220.9 36266.4 
167 10.6938 10.6938 0 0.0441381 0.0441381 8.67894e-05 441.381 25602.5 35318.3 
207 10.5388 10.5388 0 0.0435784 0.0435784 6.96158e-05 435.784 25937.5 35873.8 
247 10.1062 10.1062 0 0.0421901 0.0421901 0.000118624 421.901 27384 37597.5 
287 9.1656 9.1656 0 0.0387486 0.0387486 -0.000156391 387.486 30238.4 41496.1 
327 0.1224 0.1224 0 0.000298297 0.000298297 -2.23931e-05 24.2766 4514 6586.49 
367 0.6616 0.6616 0 0.000821711 0.000821711 -5.41171e-05 29.1354 5158.26 6857.57 
407 0.8086 0.8086 0 0.000810024 0.000810024 2.34028e-05 36.2062 5390.9 7243.5 
447 0.8612 0.8612 0 0.000666973 0.000666973 1.80008e-05 37.9304 5235.14 7153.93 
487 0.89 0.89 0 0.000678232 0.000678232 -2.29857e-05 39.5255 4945.03 6716.86 
527 0.9138 0.9138 0 0.00067573 0.00067573 1.53902e-06 40.4676 4912.76 6716.68 
567 0.9194 0.9194 0 0.000606482 0.000606482 -6.08782e-06 40.779 4513.59 6179.93 
607 0.8222 0.8222 0 0.000777386 0.000777386 1.73941e-05 36.037 4698.17 6294.41 
647 0.0716 0.0716 0 -0.000261558 -0.000261558 8.46695e-06 2.61558 244.34 427.246 
687 0.14 0.14 0 -0.000587507 -0.000587507 -2.20004e-05 5.87507 359.228 590.94 
727 0.1822 0.1822 0 -0.000746933 -0.000746933 -1.65078e-05 7.46933 616.278 861.663 
767 0.219 0.219 0 -0.0009519 -0.0009519 -9.41019e-06 9.519 782.695 1137.79 
807 0.2052 0.2052 0 -0.000895978 -0.000895978 5.14341e-06 8.95978 637.089 899.179 
847 0.1858 0.1858 0 -0.000800056 -0.000800056 -6.66685e-06 8.00056 619.741 911.82 
887 0.1368 0.1368 0 -0.000553986 -0.000553986 -6.60835e-06 5.53986 337.921 567.76 
927 0.0742 0.0742 0 -0.000272046 -0.000272046 -1.08821e-05 2.72046 252.935 367.767 
967 0.7774 0.7774 0 0.000724497 0.000724497 -5.17321e-05 34.4933 4386.23 5888.97 
1007 0.9154 0.9154 0 0.000645171 0.000645171 3.1739e-05 39.5898 4726.65 6352.92 
1047 0.915 0.915 0 0.000635015 0.000635015 -2.88771e-05 39.9142 4758.64 6458.23 
1087 0.8812 0.8812 0 0.00070331 0.00070331 5.48365e-05 39.1837 5238.72 7199.73 
1127 0.8354 0.8354 0 0.000672936 0.000672936 -2.15325e-05 36.6309 4769.59 6715.77 
1167 0.7758 0.7758 0 0.000732082 0.000732082 1.95901e-05 35.0766 5630.66 7488.09 
1207 0.6926 0.6926 0 0.00082206 0.00082206 7.2163e-06 31.064 5057.5 6717.9 
1247 0.4842 0.4842 0 0.000858617 0.000858617 1.04317e-05 18.6337 3320.24 4730.01 
8 0.4072 0.4072 0 0.00167341 0.00167341 1.03157e-06 88.5642 15437.1 22387.5 
48 9.469 9.469 0 0.0398755 0.0398755 6.79131e-05 398.755 29566.7 40820.8 
88 10.3532 10.3532 0 0.0429269 0.0429269 0.000153039 429.269 26983.4 37068.9 
128 10.644 10.644 0 0.0439472 0.0439472 -3.21648e-05 439.472 25494.1 35664.3 
168 10.7104 10.7104 0 0.0441549 0.0441549 -1.28505e-05 441.549 26432.3 36008.9 
208 10.604 10.604 0 0.0439078 0.0439078 9.39611e-05 439.078 26082.2 36178.7 
248 10.2628 10.2628 0 0.0426839 0.0426839 -5.11064e-05 426.839 27613.9 38763.6 
288 9.1378 9.1378 0 0.038557 0.038557 -7.34219e-05 385.57 29916.8 41233 
328 0.1072 0.1072 0 0.000202671 0.000202671 9.52358e-06 20.7842 3542.03 4979.46 
368 0.694 0.694 0 0.000885969 0.000885969 3.72292e-05 30.7772 5448.32 7014.39 
408 0.7822 0.7822 0 0.000740001 0.000740001 4.49861e-05 34.9652 4938.3 6640.81 
448 0.8698 0.8698 0 0.000704399 0.000704399 2.0494e-05 38.3162 5271.27 7090.17 
488 0.8642 0.8642 0 0.000657276 0.000657276 -3.87826e-05 37.8818 4867.17 6621.42 
528 0.9198 0.9198 0 0.000609442 0.000609442 -1.64653e-05 40.1613 5116.12 7065.35 
568 0.8832 0.8832 0 0.00071053 0.00071053 -3.28317e-06 38.6159 4624.2 6142.03 
608 0.7708 0.7708 0 0.000713191 0.000713191 -1.23831e-05 33.8796 4687.13 6228.5 
648 0.0648 0.0648 0 -0.000250963 -0.000250963 -1.36011e-05 2.50963 158.188 289.092 
688 0.141 0.141 0 -0.000582965 -0.000582965 -4.31189e-06 5.82965 506.304 688.417 
728 0.1828 0.1828 0 -0.00078375 -0.00078375 -1.09486e-05 7.8375 703.489 999.698 
768 0.2114 0.2114 0 -0.000907821 -0.000907821 -9.16473e-07 9.07821 774.367 1087.07 
808 0.208 0.208 0 -0.000891609 -0.000891609 8.26594e-06 8.91609 672.387 1056.41 
848 0.1898 0.1898 0 -0.000826305 -0.000826305 -2.27415e-05 8.26305 675.936 1032.26 
888 0.139 0.139 0 -0.000584208 -0.000584208 4.34009e-07 5.84208 465.861 697.235 
928 0.071 0.071 0 -0.000261763 -0.000261763 5.95914e-06 2.61763 264.378 405.184 
968 0.7734 0.7734 0 0.000770531 0.000770531 -2.59637e-05 34.2525 4311.26 5957.56 
1008 0.8842 0.8842 0 0.000639334 0.000639334 1.20928e-05 38.6812 4610.48 6139.02 
1048 0.9516 0.9516 0 0.000699707 0.000699707 1.69518e-05 41.654 5228.45 7148.52 
1088 0.8844 0.8844 0 0.000634988 0.000634988 -2.07016e-05 39.0427 5045.24 6886.67 
1128 0.8366 0.8366 0 0.000680739 0.000680739 1.43303e-05 37.4288 5217.49 6941 
1168 0.787 0.787 0 0.000792636 0.000792636 -4.73252e-06 35.4192 5544.63 7348.7 
1208 0.6634 0.6634 0 0.000856056 0.000856056 2.54885e-06 29.429 5091.33 6572.73 
1248 0.4744 0.4744 0 0.000846262 0.000846262 -1.36017e-05 18.4771 3113.69 4585.26 
9 0.4808 0.4808 0 0.00208808 0.00208808 -1.54569e-05 105.978 18948.4 25799.5 
49 9.4538 9.4538 0 0.0398403 0.0398403 1.0592e-05 398.403 29747.2 41678.9 
89 10.3092 10.3092 0 0.0428807 0.0428807 3.74069e-05 428.807 27634.1 37782.5 
129 10.6466 10.6466 0 0.0439788 0.0439788 -4.74302e-05 439.788 25930.5 36141.6 
169 10.8286 10.8286 0 0.0445898 0.0445898 -2.42514e-05 445.898 26145.6 35602.2 
209 10.4646 10.4646 0 0.043284 0.043284 4.94455e-05 432.84 25736.1 35940 
249 10.1968 10.1968 0 0.0423849 0.0423849 -5.72302e-05 423.849 27855.8 38386.3 
289 9.0326 9.0326 0 0.0383464 0.0383464 1.78831e-05 383.464 30410.9 41734 
329 0.497 0.497 0 0.000864694 0.000864694 3.59752e-05 19.3099 3155.67 4572.22 
369 0.6688 0.6688 0 0.000857061 0.000857061 1.92273e-06 29.4335 5033.13 6744.12 
409 0.7932 0.7932 0 0.000810077 0.000810077 -6.65571e-06 35.2457 5317.53 6991.77 
449 0.8384 0.8384 0 0.000735192 0.000735192 -1.3772e-05 36.8696 4994.95 6857.67 
489 0.892 0.892 0 0.000588339 0.000588339 -4.85739e-05 39.2387 5134.86 6999.6 
529 0.892 0.892 0 0.000624858 0.000624858 2.85568e-05 39.4015 4929.09 6661.73 
569 0.8924 0.8924 0 0.000564281 0.000564281 -2.45822e-06 39.2582 4755.04 6543.89 
609 0.7664 0.7664 0 0.000729564 0.000729564 2.50097e-06 33.9961 4572.67 6032.32 
649 0.0662 0.0662 0 -0.000246671 -0.000246671 7.30782e-06 2.46671 148.494 296.675 
689 0.1364 0.1364 0 -0.000565244 -0.000565244 -2.44903e-05 5.65244 374 584.177 
729 0.1898 0.1898 0 -0.000806309 -0.000806309 2.98242e-06 8.06309 698.063 996.305 
769 0.2044 0.2044 0 -0.000880314 -0.000880314 -9.67967e-06 8.80314 595.197 909.285 
809 0.2092 0.2092 0 -0.000892742 -0.000892742 1.95389e-05 8.92742 696.404 1090.79 
849 0.1904 0.1904 0 -0.000814389 -0.000814389 -9.6036e-06 8.14389 669.648 876.907 
889 0.142 0.142 0 -0.000589503 -0.000589503 -7.37089e-07 5.89503 496.411 757.607 
929 0.0616 0.0616 0 -0.000236068 -0.000236068 -4.69787e-06 2.36068 78.7566 231.474 
969 0.7814 0.7814 0 0.000750415 0.000750415 3.63935e-05 34.3385 4440.44 6053.55 
1009 0.8824 0.8824 0 0.000633763 0.000633763 9.16882e-06 38.5242 4536.97 6305.47 
1049 0.9338 0.9338 0 0.00067234 0.00067234 7.38572e-05 41.1105 5077.38 6913.24 
1089 0.8854 0.8854 0 0.000666347 0.000666347 4.46965e-05 39.9752 4913.81 6975.47 
1129 0.8488 0.8488 0 0.00072985 0.00072985 -5.87694e-05 37.9483 5383.97 7108.89 
1169 0.7822 0.7822 0 0.000770125 0.000770125 3.71716e-06 34.7451 5108.23 6791.82 
1209 0.6842 0.6842 0 0.000837684 0.000837684 2.46784e-05 29.7935 5136.85 6789.63 
10 0.5604 0.5604 0 0.00245733 0.00245733 -1.34084e-05 123.519 21771.7 29838.2 
50 9.5272 9.5272 0 0.04007 0.04007 8.0091e-05 400.7 29331.5 40301.7 
90 10.3698 10.3698 0 0.0430675 0.0430675 -2.82652e-05 430.675 27197.5 37395.1 
130 10.6724 10.6724 0 0.044119 0.044119 -2.90118e-05 441.19 25950.4 35926.1 
170 10.57 10.57 0 0.0435732 0.0435732 -1.97199e-05 435.732 25576 35245.8 
210 10.5692 10.5692 0 0.0437089 0.0437089 -0.000166067 437.089 26024.3 35909.1 
250 10.1042 10.1042 0 0.0420779 0.0420779 2.37734e-05 420.779 26660.1 37723.3 
290 9.0574 9.0574 0 0.0384057 0.0384057 -0.000161253 384.057 30340.9 41521 
330 0.5012 0.5012 0 0.000915926 0.000915926 -1.48213e-05 19.6011 3286.43 4813.23 
370 0.6484 0.6484 0 0.000770126 0.000770126 3.98797e-06 28.4953 4592.45 6144.46 
410 0.785 0.785 0 0.00077237 0.00077237 -1.51932e-05 35.2188 5311.65 7015.36 
450 0.8702 0.8702 0 0.0007347 0.0007347 -2.45148e-06 38.1829 5112.02 6853.6 
490 0.9108 0.9108 0 0.000747609 0.000747609 -7.7957e-05 40.1394 4993.18 6918.42 
530 0.9148 0.9148 0 0.000671467 0.000671467 1.0625e-07 40.027 5003.76 6943.03 
570 0.896 0.896 0 0.000637376 0.000637376 3.84574e-05 38.9308 4564.98 6218.75 
610 0.7906 0.7906 0 0.000741189 0.000741189 1.64339e-05 34.5551 4279.68 5868.51 
650 0.0752 0.0752 0 -0.000280803 -0.000280803 -1.69125e-05 2.80803 157.394 304.309 
690 0.1386 0.1386 0 -0.000583104 -0.000583104 1.6696e-05 5.83104 456.776 660.14 
730 0.1824 0.1824 0 -0.000767266 -0.000767266 -8.09152e-06 7.67266 619.822 911.615 
770 0.2198 0.2198 0 -0.000932012 -0.000932012 -1.79374e-05 9.32012 733.889 1109.82 
810 0.2106 0.2106 0 -0.000921441 -0.000921441 1.59367e-05 9.21441 702.364 1046.51 
850 0.1904 0.1904 0 -0.000811765 -0.000811765 -1.21782e-05 8.11765 561.857 931.121 
890 0.1332 0.1332 0 -0.000534578 -0.000534578 -5.6645e-06 5.34578 437.536 651.544 
930 0.0666 0.0666 0 -0.00024298 -0.00024298 5.56283e-07 2.4298 180.623 315.874 
970 0.7784 0.7784 0 0.00073224 0.00073224 2.17708e-05 34.4596 4609.04 5995.33 
1010 0.9108 0.9108 0 0.000673178 0.000673178 -6.00941e-06 39.3109 4559.21 6597.27 
1050 0.9024 0.9024 0 0.000637889 0.000637889 3.77081e-05 39.362 4581.77 6342.49 
1090 0.8812 0.8812 0 0.000705643 0.000705643 -4.49992e-05 38.6762 4869.09 6801.86 
1130 0.8582 0.8582 0 0.000725555 0.000725555 3.82055e-05 37.9745 5048.84 7090.95 
1170 0.7878 0.7878 0 0.000761576 0.000761576 8.64775e-06 34.9162 5266.95 6847.62 
1210 0.6754 0.6754 0 0.000845468 0.000845468 3.88997e-05 29.5294 4994.74 6773.06 
11 0.6548 0.6548 0 0.00298989 0.00298989 -1.16495e-05 146.907 25314.3 33984.1 
51 9.5084 9.5084 0 0.0398927 0.0398927 4.65105e-05 398.927 28958.4 40085.5 
91 10.3148 10.3148 0 0.0427352 0.0427352 9.04585e-05 427.352 26017.7 36451.9 
131 10.6602 10.6602 0 0.0439491 0.0439491 0.000143854 439.491 26155.5 35891.4 
171 10.6766 10.6766 0 0.0438831 0.0438831 4.10278e-06 438.831 25754.4 35232 
211 10.5814 10.5814 0 0.043799 0.043799 0.000136335 437.99 27292.7 37735.3 
251 10.139 10.139 0 0.0422746 0.0422746 -2.18454e-05 422.746 27193.7 38023.4 
291 8.9884 8.9884 0 0.0381565 0.0381565 3.02291e-06 381.565 31020.5 43253.2 
331 0.494 0.494 0 0.000870506 0.000870506 -3.01015e-05 19.662 3506.21 4978.63 
371 0.7008 0.7008 0 0.000849159 0.000849159 -5.92049e-06 30.9311 4946.37 6739.6 
411 0.827 0.827 0 0.000741903 0.000741903 4.92935e-06 36.7921 5290.89 7241.19 
451 0.8514 0.8514 0 0.000731246 0.000731246 -2.86012e-05 37.7463 5283.52 7142.77 
491 0.9116 0.9116 0 0.000645408 0.000645408 -1.56271e-05 40.137 5061.02 7063.07 
531 0.9278 0.9278 0 0.000603432 0.000603432 -1.59669e-05 40.364 5031.13 6948.47 
571 0.8898 0.8898 0 0.000651678 0.000651678 1.21757e-05 39.3348 4761.03 6243.43 
611 0.7644 0.7644 0 0.000771102 0.000771102 -4.25865e-05 33.7364 4186.37 5685.04 
651 0.0658 0.0658 0 -0.000246569 -0.000246569 3.51684e-06 2.46569 161.035 290.332 
691 0.1412 0.1412 0 -0.000573844 -0.000573844 -9.98292e-06 5.73844 323.067 524.861 
731 0.2 0.2 0 -0.00085497 -0.00085497 8.15858e-07 8.5497 651.12 1088.82 
771 0.2032 0.2032 0 -0.000882508 -0.000882508 1.23506e-05 8.82508 758.451 1069.9 
811 0.2204 0.2204 0 -0.00094168 -0.00094168 -1.19247e-05 9.4168 725.498 1120.37 
851 0.188 0.188 0 -0.000782653 -0.000782653 -1.92954e-05 7.82653 602.375 910.389 
891 0.1418 0.1418 0 -0.00059205 -0.00059205 -4.46833e-06 5.9205 410.529 638.295 
931 0.06 0.06 0 -0.000230407 -0.000230407 4.4078e-06 2.30407 120.942 211.2 
971 0.7758 0.7758 0 0.000744028 0.000744028 2.19651e-05 34.1578 4189.43 5740.36 
1011 0.9236 0.9236 0 0.000688473 0.000688473 7.76595e-06 40.4813 4818.36 6618.14 
1051 0.9126 0.9126 0 0.000643924 0.000643924 1.59822e-05 39.8534 4793.68 6587.19 
1091 0.8806 0.8806 0 0.000605678 0.000605678 -8.97415e-06 38.4591 4989.61 6967.69 
1131 0.8638 0.8638 0 0.000712368 0.000712368 2.97389e-05 38.1128 5568.26 7433.52 
1171 0.7952 0.7952 0 0.000813845 0.000813845 -9.72057e-06 35.1551 5140.39 6839.07 
1211 0.679 0.679 0 0.000830399 0.000830399 -2.54665e-05 30.0499 4762.52 6417.31 
12 0.7276 0.7276 0 0.00340304 0.00340304 -3.35707e-05 166.474 28672.6 37846.5 
52 9.6326 9.6326 0 0.0405401 0.0405401 1.86744e-05 405.401 29362 40606.6 
92 10.3396 10.3396 0 0.0426471 0.0426471 -7.16531e-05 426.471 27183.4 37598.8 
132 10.6624 10.6624 0 0.0441369 0.0441369 4.52083e-05 441.369 25661.8 35287.7 
172 10.663 10.663 0 0.0440745 0.0440745 2.54887e-05 440.745 25689.8 35244.8 
212 10.5676 10.5676 0 0.0437852 0.0437852 2.69039e-05 437.852 25992.2 35817.5 
252 10.1498 10.1498 0 0.0421041 0.0421041 3.97598e-05 421.041 27540.6 37953.5 
292 8.9248 8.9248 0 0.0378198 0.0378198 -5.91544e-05 378.198 31050.9 42549.8 
332 0.5228 0.5228 0 0.000903541 0.000903541 1.37886e-05 20.6306 3779.96 5536.8 
372 0.6992 0.6992 0 0.00080988 0.00080988 2.76256e-05 31.1573 5289.02 6937.23 
412 0.7844 0.7844 0 0.000748838 0.000748838 -2.27717e-05 34.8616 5164.94 6944.58 
452 0.8868 0.8868 0 0.000707149 0.000707149 3.1575e-05 38.9258 5380.24 7366.77 
492 0.8798 0.8798 0 0.000666409 0.000666409 -2.65432e-05 38.9879 4978.6 6812.49 
532 0.9026 0.9026 0 0.000666294 0.000666294 -1.00221e-05 39.6433 4883.77 6766.89 
572 0.9028 0.9028 0 0.000667799 0.000667799 -4.97327e-06 39.3702 4716.36 6402.76 
612 0.7498 0.7498 0 0.000751231 0.000751231 9.03685e-06 33.2387 4614.04 6202.45 
652 0.0708 0.0708 0 -0.0002749 -0.0002749 -1.53837e-06 2.749 192.622 311.564 
692 0.1396 0.1396 0 -0.000579468 -0.000579468 1.60353e-05 5.79468 458.203 685.457 
732 0.1876 0.1876 0 -0.000785424 -0.000785424 -6.83832e-06 7.85424 581.278 833.602 
772 0.217 0.217 0 -0.000919567 -0.000919567 1.0424e-05 9.19567 676.442 933.521 
812 0.2172 0.2172 0 -0.000937149 -0.000937149 -3.76092e-05 9.37149 779.058 1049.99 
852 0.1772 0.1772 0 -0.000757722 -0.000757722 4.87923e-06 7.57722 644.953 930.647 