ITEM: TIMESTEP
25000
ITEM: NUMBER OF SURFS
1248
ITEM: BOX BOUNDS oo rr pp
0 0.3
0 0.3
-0.5 0.5
ITEM: SURFS id f_4[1] f_4[2] f_4[3] f_4[4] f_4[5] f_4[6] f_4[7] f_4[8] f_4[9] 
1 0.0608 0.0608 0 0.00118474 0.00118474 -9.66295e-05 120.708 12984.7 12892.9 
41 9.3528 9.3528 0 0.384435 0.384435 0.000336516 3844.35 211467 302113 
81 10.4776 10.4776 0 0.424551 0.424551 -0.000264925 4245.51 189854 278460 
121 10.876 10.876 0 0.43836 0.43836 0.00125845 4383.6 182226 271284 
161 11.059 11.059 0 0.44639 0.44639 -0.000579208 4463.9 186338 274384 
201 10.7862 10.7862 0 0.434825 0.434825 0.000885509 4348.25 187148 270140 
241 10.559 10.559 0 0.428873 0.428873 0.000122975 4288.73 190719 271550 
281 9.7154 9.7154 0 0.396461 0.396461 -0.00040102 3964.61 205054 299032 
321 0.4314 0.4314 0 0.0156858 0.0156858 6.71118e-05 882.689 81348.7 98368.5 
361 0.4678 0.4678 0 0.00266457 0.00266457 0.000295656 189.381 8573.11 11888.5 
401 0.6154 0.6154 0 0.00185279 0.00185279 0.000296713 246.743 8944.64 11333.1 
441 0.7406 0.7406 0 0.00189708 0.00189708 0.000402602 294.55 10105.5 13597.3 
481 0.815 0.815 0 0.00181904 0.00181904 0.000252695 324.971 10171.8 14323.5 
521 0.8914 0.8914 0 0.00180037 0.00180037 0.000453158 356.359 11422.5 14324.4 
561 0.8764 0.8764 0 0.00173357 0.00173357 0.000122454 347.616 11650.2 16207.7 
601 0.8392 0.8392 0 0.00209356 0.00209356 0.000168582 338.295 9141.91 13111.6 
641 0.087 0.087 0 -0.00315444 -0.00315444 -2.81731e-05 31.5444 733.532 1273.95 
681 0.2276 0.2276 0 -0.0088347 -0.0088347 0.000112665 88.347 2357.15 2918.13 
721 0.2158 0.2158 0 -0.00852856 -0.00852856 0.000125933 85.2856 2358.92 3023.84 
761 0.2506 0.2506 0 -0.00983819 -0.00983819 1.84463e-05 98.3819 3605.91 4894.51 
801 0.2556 0.2556 0 -0.010347 -0.010347 -7.22792e-05 103.47 3542.88 5243.76 
841 0.2274 0.2274 0 -0.00913629 -0.00913629 -9.38177e-06 91.3629 2286.28 2722.57 
881 0.227 0.227 0 -0.00894533 -0.00894533 -6.27615e-05 89.4533 1924.02 2087.72 
921 0.2118 0.2118 0 -0.00813907 -0.00813907 0.000232042 81.3907 1761.79 2539.01 
961 0.7382 0.7382 0 0.00335767 0.00335767 0.000200396 295.69 10852.7 15986.2 
1001 0.8844 0.8844 0 0.00270754 0.00270754 -6.90314e-05 349.881 11190.4 15689.9 
1041 0.892 0.892 0 0.00217033 0.00217033 -0.000215314 355.554 10589.3 13578.6 
1081 0.8208 0.8208 0 0.00206667 0.00206667 2.90027e-05 326.283 9123.29 13959.8 
1121 0.7652 0.7652 0 0.00160405 0.00160405 -2.74131e-05 308.715 11052.9 15969.1 
1161 0.6548 0.6548 0 0.00202891 0.00202891 6.74032e-05 260.61 10084.4 13568.3 
1201 0.5248 0.5248 0 0.0023465 0.0023465 0.000136554 208.19 10404.8 13718.2 
1241 0.4004 0.4004 0 0.005137 0.005137 0.000345036 159.732 14837.1 17694.2 
2 0.0608 0.0608 0 0.00122176 0.00122176 0.000121076 119.08 12378 15795.5 
42 9.4848 9.4848 0 0.389017 0.389017 1.79873e-05 3890.17 212723 304402 
82 10.4718 10.4718 0 0.423207 0.423207 0.000704198 4232.07 191507 278983 
122 10.853 10.853 0 0.437723 0.437723 -0.000501982 4377.23 183724 266873 
162 11.0988 11.0988 0 0.447373 0.447373 0.00246805 4473.73 191108 274347 
202 10.8806 10.8806 0 0.440241 0.440241 -0.000446876 4402.41 186972 276475 
242 10.4944 10.4944 0 0.424533 0.424533 0.00239791 4245.33 192271 277996 
282 9.7756 9.7756 0 0.398834 0.398834 -0.00148913 3988.34 209644 304746 
322 0.2986 0.2986 0 0.0100213 0.0100213 -0.000215783 598.565 51767.5 68954 
362 0.449 0.449 0 0.00263965 0.00263965 4.12834e-05 179.55 9461.73 13164.5 
402 0.6054 0.6054 0 0.00207872 0.00207872 0.000341377 241.806 8319.43 12856.3 
442 0.7122 0.7122 0 0.00169258 0.00169258 -0.000394031 284.551 9323.6 13240.8 
482 0.7966 0.7966 0 0.00175055 0.00175055 -0.000510449 317.525 9480.21 11933.5 
522 0.8658 0.8658 0 0.00149818 0.00149818 -0.00015756 343.329 10180.4 13889.2 
562 0.8886 0.8886 0 0.00235018 0.00235018 8.1074e-05 354.96 9575.38 12833.6 
602 0.8348 0.8348 0 0.0029145 0.0029145 -0.000174684 336.503 11926.6 15832.9 
642 0.1036 0.1036 0 -0.00389464 -0.00389464 -2.28684e-05 38.9464 38.4984 600.589 
682 0.2248 0.2248 0 -0.00845383 -0.00845383 0.000192915 84.5383 1439.5 1614.14 
722 0.2258 0.2258 0 -0.00894845 -0.00894845 -6.85847e-05 89.4845 2361.42 3404.95 
762 0.2392 0.2392 0 -0.00956231 -0.00956231 9.88879e-05 95.6231 2326.76 3188.98 
802 0.2554 0.2554 0 -0.0103123 -0.0103123 1.53901e-05 103.123 3513.55 5113.87 
842 0.2372 0.2372 0 -0.00926186 -0.00926186 3.13793e-05 92.6186 3193.32 4618.33 
882 0.2214 0.2214 0 -0.00857003 -0.00857003 -9.46554e-05 85.7003 1384.57 2302.18 
922 0.201 0.201 0 -0.00778293 -0.00778293 7.55552e-05 77.8293 802.127 1300.57 
962 0.739 0.739 0 0.0032223 0.0032223 -3.17369e-05 295.776 11275.2 15527.5 
1002 0.8794 0.8794 0 0.00215324 0.00215324 0.000587659 349.922 10968.8 14929.5 
1042 0.8822 0.8822 0 0.00162231 0.00162231 -0.000113528 350.652 10202.2 14954.2 
1082 0.8366 0.8366 0 0.00163922 0.00163922 -6.11346e-06 333.262 10756.1 14519.5 
1122 0.775 0.775 0 0.0019506 0.0019506 0.000222498 311.292 10491.2 13566.1 
1162 0.65 0.65 0 0.00167624 0.00167624 -3.90314e-05 262.972 10371.6 14514.9 
1202 0.5194 0.5194 0 0.00200797 0.00200797 0.000105632 206.329 8106.31 10931.2 
1242 0.4128 0.4128 0 0.00571459 0.00571459 -0.000193673 164.127 15447 18427.8 
3 0.0498 0.0498 0 0.00119999 0.00119999 5.52633e-05 100.587 9897.96 12770.9 
43 9.5182 9.5182 0 0.388753 0.388753 -0.0011479 3887.53 208009 300429 
83 10.3744 10.3744 0 0.420555 0.420555 0.000425804 4205.55 192386 278902 
123 10.7642 10.7642 0 0.434231 0.434231 -0.000682095 4342.31 187290 269190 
163 10.7278 10.7278 0 0.431331 0.431331 0.000174307 4313.31 180551 262454 
203 10.7994 10.7994 0 0.435956 0.435956 -0.000263603 4359.56 180190 262646 
243 10.5454 10.5454 0 0.427417 0.427417 -0.000191015 4274.17 199525 286267 
283 9.5654 9.5654 0 0.392356 0.392356 0.00126137 3923.56 206020 294763 
323 0.2026 0.2026 0 0.00637353 0.00637353 -0.000171143 402.461 32910.1 46124.9 
363 0.4892 0.4892 0 0.00238942 0.00238942 -0.000160966 195.331 8724.94 12119.6 
403 0.61 0.61 0 0.00237544 0.00237544 0.000224196 243.345 11093.4 14891.6 
443 0.7474 0.7474 0 0.00180436 0.00180436 -0.000282552 298.948 11199.5 15335 
483 0.824 0.824 0 0.00161741 0.00161741 -0.000451047 330.196 9853.25 14055.7 
523 0.8708 0.8708 0 0.00189634 0.00189634 3.82127e-05 348.121 13380.7 17495.7 
563 0.9084 0.9084 0 0.00203754 0.00203754 -0.000253082 359.817 12128.1 16719.1 
603 0.8268 0.8268 0 0.00289599 0.00289599 -8.80749e-05 328.482 12245.1 15547.1 
643 0.1252 0.1252 0 -0.00465297 -0.00465297 4.98437e-05 46.5297 1062.16 1517.63 
683 0.2254 0.2254 0 -0.00884599 -0.00884599 -9.80466e-05 88.4599 1363.83 1941.59 
723 0.2286 0.2286 0 -0.00888741 -0.00888741 3.84882e-05 88.8741 2607.04 3503.52 
763 0.2428 0.2428 0 -0.00981576 -0.00981576 5.18703e-05 98.1576 2669.97 4555.84 
803 0.2424 0.2424 0 -0.00969015 -0.00969015 -0.00018959 96.9015 2289.48 3660.89 
843 0.2436 0.2436 0 -0.00987339 -0.00987339 9.85514e-05 98.7339 3082.82 4168.37 
883 0.2326 0.2326 0 -0.00920903 -0.00920903 8.04933e-06 92.0903 2320.45 2973.12 
923 0.2098 0.2098 0 -0.00822991 -0.00822991 -4.95886e-06 82.2991 1642.06 1735.08 
963 0.755 0.755 0 0.00297358 0.00297358 0.000234657 302.845 10538.2 13863.1 
1003 0.874 0.874 0 0.00174813 0.00174813 0.000186628 349.573 10302.3 13739.4 
1043 0.8566 0.8566 0 0.00190691 0.00190691 8.80103e-05 341.08 9299.14 11841.4 
1083 0.8466 0.8466 0 0.00156267 0.00156267 -0.000186313 339.189 10904.4 14334.2 
1123 0.7618 0.7618 0 0.00212234 0.00212234 -0.000314485 304.524 10564 14381.1 
1163 0.6556 0.6556 0 0.00177128 0.00177128 -0.000230517 259.428 9490.25 12794.1 
1203 0.5272 0.5272 0 0.00262186 0.00262186 0.000187603 214.854 9560.43 12102.3 
1243 0.4022 0.4022 0 0.00553179 0.00553179 -0.000152254 161.295 15089.3 17137.9 
4 0.082 0.082 0 0.00216981 0.00216981 1.08201e-05 163.319 16259.4 17750.7 
44 9.5866 9.5866 0 0.392833 0.392833 -0.00050085 3928.33 211580 305371 
84 10.5 10.5 0 0.424848 0.424848 -0.000469675 4248.48 190624 278768 
124 10.808 10.808 0 0.437833 0.437833 -0.00036913 4378.33 186162 269060 
164 10.9746 10.9746 0 0.442785 0.442785 0.000320463 4427.85 181958 269356 
204 10.8954 10.8954 0 0.439969 0.439969 -0.000928935 4399.69 184014 268525 
244 10.6658 10.6658 0 0.432542 0.432542 -0.000440801 4325.42 192244 282716 
284 9.643 9.643 0 0.395294 0.395294 -0.000752382 3952.94 207673 300900 
324 0.1256 0.1256 0 0.00363849 0.00363849 -0.000116311 255.304 19442.3 25517.9 
364 0.4786 0.4786 0 0.00247838 0.00247838 -0.000419913 192.938 7399.02 11549.4 
404 0.619 0.619 0 0.0019402 0.0019402 0.000392496 245.229 10095.3 13105.5 
444 0.7396 0.7396 0 0.00193071 0.00193071 7.11756e-05 295.104 11382.4 15808.3 
484 0.8184 0.8184 0 0.00203427 0.00203427 -0.000232714 322.43 10733.1 14407.9 
524 0.8728 0.8728 0 0.00205528 0.00205528 -0.000471305 345.832 12607.8 15768.4 
564 0.8946 0.8946 0 0.00223383 0.00223383 0.000527431 356.96 11015.6 15769.3 
604 0.8218 0.8218 0 0.00305903 0.00305903 -0.000153519 327.324 11173.1 15642.1 
644 0.141 0.141 0 -0.00533138 -0.00533138 -0.000148532 53.3138 1373.9 1768.62 
684 0.236 0.236 0 -0.00922311 -0.00922311 0.000129224 92.2311 1569.06 1791.07 
724 0.2244 0.2244 0 -0.00883394 -0.00883394 -3.09616e-05 88.3394 1604.62 2155.89 
764 0.248 0.248 0 -0.01 -0.01 0.000128018 100 3293.87 5076.41 
804 0.2388 0.2388 0 -0.00946024 -0.00946024 0.000115434 94.6024 3876.37 5731.37 
844 0.2166 0.2166 0 -0.00857017 -0.00857017 -0.000131405 85.7017 2154.9 3012.35 
884 0.2268 0.2268 0 -0.00878895 -0.00878895 0.000162842 87.8895 1796.96 1892.78 
924 0.197 0.197 0 -0.00769487 -0.00769487 -2.69425e-05 76.9487 1906.95 2270.62 
964 0.7554 0.7554 0 0.0034413 0.0034413 3.64513e-05 302.174 13997.8 17282.4 
1004 0.8884 0.8884 0 0.00186498 0.00186498 -0.000164208 353.367 11016.5 14968 
1044 0.8856 0.8856 0 0.00186618 0.00186618 -0.000227065 353.512 10938.8 14294 
1084 0.8286 0.8286 0 0.00173555 0.00173555 -0.000603652 328.764 10076.8 14379.5 
1124 0.7594 0.7594 0 0.00163374 0.00163374 0.000239657 302.221 8928.02 13625.6 
1164 0.6598 0.6598 0 0.00258907 0.00258907 -6.78983e-05 267.426 10382.3 13997.3 
1204 0.5064 0.5064 0 0.00297624 0.00297624 0.000199967 205.014 10722.5 13872 
1244 0.414 0.414 0 0.00654855 0.00654855 3.23721e-05 163.557 17938.5 20867.8 
5 0.1232 0.1232 0 0.0036522 0.0036522 0.000172078 245.453 18458.6 22819.6 
45 9.5576 9.5576 0 0.389968 0.389968 -0.000418646 3899.68 206407 296463 
85 10.5056 10.5056 0 0.424434 0.424434 0.000404413 4244.34 195032 281352 
125 10.7952 10.7952 0 0.436333 0.436333 0.000230818 4363.33 185522 272846 
165 10.9204 10.9204 0 0.439268 0.439268 0.00036344 4392.68 177961 258302 
205 10.8616 10.8616 0 0.43801 0.43801 -0.000113891 4380.1 182917 262455 
245 10.4136 10.4136 0 0.421294 0.421294 -0.000185203 4212.94 185634 273786 
285 9.5464 9.5464 0 0.391456 0.391456 -0.000971291 3914.56 207931 298817 
325 0.082 0.082 0 0.00218963 0.00218963 7.72891e-05 159.787 13865.8 18374.6 
365 0.4712 0.4712 0 0.00283824 0.00283824 0.000265618 191.411 10400.2 12030.9 
405 0.6382 0.6382 0 0.00194307 0.00194307 -0.000309166 255.619 11433 15934.6 
445 0.7452 0.7452 0 0.00237636 0.00237636 4.68733e-05 294.991 10428.7 14982.6 
485 0.8008 0.8008 0 0.00154802 0.00154802 0.000266475 320.848 10303.2 14863.2 
525 0.8842 0.8842 0 0.0016764 0.0016764 0.00013723 351.559 9826.22 12899.2 
565 0.8998 0.8998 0 0.00198442 0.00198442 -9.35364e-05 355.78 12283.9 16049 
605 0.8198 0.8198 0 0.00277065 0.00277065 -0.000371265 326.895 13721.5 18594.6 
645 0.1536 0.1536 0 -0.0058905 -0.0058905 7.05349e-05 58.905 824.999 1625.1 
685 0.2298 0.2298 0 -0.00897861 -0.00897861 -6.39254e-05 89.7861 1867.17 2112.43 
725 0.2344 0.2344 0 -0.00919654 -0.00919654 0.000241945 91.9654 2549.27 4189.67 
765 0.2508 0.2508 0 -0.010181 -0.010181 0.000189593 101.81 4119.22 5481.65 
805 0.2494 0.2494 0 -0.010017 -0.010017 0.000310525 100.17 3802.56 5210.32 
845 0.2198 0.2198 0 -0.00886479 -0.00886479 2.97877e-05 88.6479 955.952 2343.84 
885 0.2312 0.2312 0 -0.00905396 -0.00905396 -6.08047e-05 90.5396 2054.22 2527.17 
925 0.2004 0.2004 0 -0.00805547 -0.00805547 5.07474e-05 80.5547 572.095 376.537 
965 0.7834 0.7834 0 0.00320136 0.00320136 -0.000110539 313.492 11640.6 15709.6 
1005 0.8996 0.8996 0 0.0024082 0.0024082 0.000362415 357.851 11937.3 15732.2 
1045 0.8594 0.8594 0 0.00222183 0.00222183 0.000670836 338.994 11670.4 15727.5 
1085 0.8228 0.8228 0 0.00199978 0.00199978 1.45125e-06 328.249 9451.42 11844.3 
1125 0.758 0.758 0 0.0020555 0.0020555 0.000111308 302.556 10337.9 13855.6 
1165 0.6372 0.6372 0 0.00217906 0.00217906 -0.000199557 254.093 9707.46 12446.1 
1205 0.5182 0.5182 0 0.00279261 0.00279261 -0.000208077 207.912 9811.68 12768.9 
1245 0.4096 0.4096 0 0.00645955 0.00645955 2.86761e-05 160.365 18264.7 21333.8 
6 0.1998 0.1998 0 0.00605475 0.00605475 0.000162194 396.408 39223.2 48651.6 
46 9.683 9.683 0 0.395117 0.395117 -2.48517e-05 3951.17 203651 297706 
86 10.5888 10.5888 0 0.428098 0.428098 0.000969139 4280.98 196045 281257 
126 10.7918 10.7918 0 0.437245 0.437245 -0.000720983 4372.45 182306 263710 
166 11.0378 11.0378 0 0.443512 0.443512 0.000770871 4435.12 186452 272562 
206 10.7348 10.7348 0 0.432998 0.432998 0.0014245 4329.98 179743 264885 
246 10.42 10.42 0 0.421197 0.421197 -0.000266855 4211.97 185196 272159 
286 9.5332 9.5332 0 0.389936 0.389936 0.00108145 3899.36 210417 306637 
326 0.0568 0.0568 0 0.00132858 0.00132858 4.16714e-06 112.82 9207.77 12577.7 
366 0.488 0.488 0 0.00252523 0.00252523 -3.5182e-05 195.298 9074.71 12645.8 
406 0.6294 0.6294 0 0.0023168 0.0023168 0.0001262 255.376 9577.94 13228.5 
446 0.7288 0.7288 0 0.00195948 0.00195948 -5.53872e-06 293.342 9946.04 14166.3 
486 0.8154 0.8154 0 0.00163475 0.00163475 0.000127641 323.063 10390 15676.7 
526 0.8506 0.8506 0 0.00199443 0.00199443 0.000206234 336.079 12479.8 16194.5 
566 0.9014 0.9014 0 0.00207794 0.00207794 0.00027994 356.202 12964.1 16919.8 
606 0.8364 0.8364 0 0.00223061 0.00223061 0.00040441 334.949 14014.3 17983.3 
646 0.157 0.157 0 -0.0060657 -0.0060657 -6.47131e-05 60.657 867.601 1077.87 
686 0.2184 0.2184 0 -0.00860891 -0.00860891 -8.15372e-05 86.0891 1119.27 1793.13 
726 0.2198 0.2198 0 -0.00872412 -0.00872412 4.40114e-05 87.2412 1819.91 2503.43 
766 0.251 0.251 0 -0.01006 -0.01006 -0.000120984 100.6 2931.12 3531.14 
806 0.2442 0.2442 0 -0.00967875 -0.00967875 -7.44787e-05 96.7875 2707.82 3904.81 
846 0.219 0.219 0 -0.00878417 -0.00878417 1.30674e-05 87.8417 3186.51 4379.51 
886 0.2246 0.2246 0 -0.00876398 -0.00876398 6.50969e-05 87.6398 2232.54 3443.61 
926 0.186 0.186 0 -0.00744922 -0.00744922 9.97661e-05 74.4922 2124.9 2393.7 
966 0.7802 0.7802 0 0.00301223 0.00301223 0.000598257 312.689 11345.5 14923.6 
1006 0.8926 0.8926 0 0.00188155 0.00188155 0.000123709 356.31 12562.8 17430.7 
1046 0.8638 0.8638 0 0.00214484 0.00214484 4.9639e-05 344.678 10704.5 14371.8 
1086 0.8178 0.8178 0 0.00129463 0.00129463 0.000214835 326.498 9930.47 15352.7 
1126 0.775 0.775 0 0.00170065 0.00170065 -0.000101826 312.99 11002.3 14010.1 
1166 0.6374 0.6374 0 0.00218936 0.00218936 0.000227637 254.345 7358.94 11671.9 
1206 0.495 0.495 0 0.00251346 0.00251346 1.22792e-05 197.835 9700.06 12230.1 
1246 0.3938 0.3938 0 0.00669568 0.00669568 -0.000398134 155.662 18287.5 21019.6 
7 0.3016 0.3016 0 0.0099855 0.0099855 -0.000129163 600.089 50080.4 63538.4 
47 9.6548 9.6548 0 0.394457 0.394457 -0.000507875 3944.57 208067 300672 
87 10.5508 10.5508 0 0.427073 0.427073 -0.00110644 4270.73 193098 287684 
127 10.825 10.825 0 0.436472 0.436472 0.00107768 4364.72 186653 273580 
167 10.907 10.907 0 0.439816 0.439816 0.000362155 4398.16 181797 268365 
207 10.9398 10.9398 0 0.442875 0.442875 0.00130303 4428.75 188618 276165 
247 10.39 10.39 0 0.420677 0.420677 3.82544e-05 4206.77 187969 276576 
287 9.4918 9.4918 0 0.389307 0.389307 0.000629402 3893.07 214481 308031 
327 0.0618 0.0618 0 0.00153516 0.00153516 -0.000118808 121.194 15189.7 17830.8 
367 0.4764 0.4764 0 0.00278058 0.00278058 0.000275655 190.247 8838.14 11368.3 
407 0.6288 0.6288 0 0.00183531 0.00183531 9.76952e-05 253.617 7763.05 11008.9 
447 0.756 0.756 0 0.00205987 0.00205987 9.10014e-05 302.815 9803.3 14101.3 
487 0.8632 0.8632 0 0.00212031 0.00212031 -2.06061e-05 343.439 11945.3 15620.2 
527 0.8862 0.8862 0 0.00207214 0.00207214 -4.52427e-05 354.236 11001.8 15069.7 
567 0.8922 0.8922 0 0.00217764 0.00217764 -0.000133893 349.661 8979.04 12524.5 
607 0.8144 0.8144 0 0.00253695 0.00253695 -4.63613e-05 321.551 9933.67 12757.2 
647 0.1744 0.1744 0 -0.006808 -0.006808 7.83442e-05 68.08 1542.84 2314.26 
687 0.2258 0.2258 0 -0.0089441 -0.0089441 0.000158364 89.441 1445.43 2403.57 
727 0.2264 0.2264 0 -0.00888571 -0.00888571 -8.57688e-05 88.8571 3457.32 4766.81 
767 0.2442 0.2442 0 -0.00982732 -0.00982732 -9.10269e-05 98.2732 4298.25 5379.46 
807 0.2506 0.2506 0 -0.00987969 -0.00987969 0.00010102 98.7969 3356.28 5287.49 
847 0.2296 0.2296 0 -0.00907533 -0.00907533 -0.000142303 90.7533 2908.81 4354.04 
887 0.2204 0.2204 0 -0.00858986 -0.00858986 -0.000128614 85.8986 1088.65 1735.8 
927 0.189 0.189 0 -0.00757503 -0.00757503 4.01291e-05 75.7503 989.99 2311.64 
967 0.7928 0.7928 0 0.00334261 0.00334261 -0.000228682 314.164 11394.8 15589.5 
1007 0.8954 0.8954 0 0.00248444 0.00248444 0.000129645 358.848 11864.8 15319.1 
1047 0.8706 0.8706 0 0.00192315 0.00192315 -0.000151075 343.841 10608.4 15737.5 
1087 0.8346 0.8346 0 0.00186738 0.00186738 -0.000372428 328.496 8316.61 12389.6 
1127 0.753 0.753 0 0.00177025 0.00177025 -0.00017337 302.584 10563.3 13980.2 
1167 0.657 0.657 0 0.00163496 0.00163496 -0.000185253 263.496 10107.4 14159.3 
1207 0.5132 0.5132 0 0.00251469 0.00251469 -0.000343018 204.55 8977.15 12059.5 
1247 0.3338 0.3338 0 0.00570779 0.00570779 4.31448e-05 130.926 16122.3 17974.6 
8 0.4186 0.4186 0 0.0150492 0.0150492 9.52901e-05 844.689 67858.6 82569.4 
48 9.7492 9.7492 0 0.399293 0.399293 7.64555e-05 3992.93 207449 296151 
88 10.5526 10.5526 0 0.426721 0.426721 0.00130389 4267.21 190912 281546 
128 10.8868 10.8868 0 0.438057 0.438057 0.000466199 4380.57 186030 273667 
168 10.9864 10.9864 0 0.443389 0.443389 -0.000946226 4433.89 178817 265430 
208 10.778 10.778 0 0.435013 0.435013 0.00133864 4350.13 185601 266411 
248 10.6202 10.6202 0 0.429582 0.429582 -0.00031442 4295.82 195042 286220 
288 9.5688 9.5688 0 0.39206 0.39206 4.24303e-05 3920.6 219588 311518 
328 0.061 0.061 0 0.00103725 0.00103725 -7.20161e-06 118.428 14109.8 17155.2 
368 0.4834 0.4834 0 0.0027683 0.0027683 -0.000188124 195.382 9482.83 13259.8 
408 0.6508 0.6508 0 0.00171619 0.00171619 -0.000109063 259.81 9695.62 12793.2 
448 0.748 0.748 0 0.00193511 0.00193511 -1.43771e-06 299.123 10778.5 14379.7 
488 0.8082 0.8082 0 0.00173377 0.00173377 0.000243302 317.564 11045.3 14005 
528 0.8888 0.8888 0 0.00205315 0.00205315 8.68674e-05 356.717 9501.72 13545.4 
568 0.9044 0.9044 0 0.00255305 0.00255305 -0.000228279 358.549 12734.5 17247.7 
608 0.8188 0.8188 0 0.00310307 0.00310307 -1.62485e-05 322.357 9694.12 13781.1 
648 0.1688 0.1688 0 -0.00660889 -0.00660889 0.000195013 66.0889 1291.13 2367.59 
688 0.2244 0.2244 0 -0.0087386 -0.0087386 -0.000147598 87.386 1783.35 2565.72 
728 0.2282 0.2282 0 -0.00895477 -0.00895477 -0.000217783 89.5477 2232.08 3391.86 
768 0.2502 0.2502 0 -0.00995394 -0.00995394 0.000106152 99.5394 2612.67 4252.06 
808 0.2594 0.2594 0 -0.0103844 -0.0103844 -0.000157006 103.844 2962.84 3542.3 
848 0.219 0.219 0 -0.00872729 -0.00872729 -8.40871e-05 87.2729 2987.77 4087.3 
888 0.2284 0.2284 0 -0.00883815 -0.00883815 0.000198069 88.3815 1356.16 2088.17 
928 0.1812 0.1812 0 -0.00709586 -0.00709586 -0.00013276 70.9586 1942.23 2811.57 
968 0.7958 0.7958 0 0.00245529 0.00245529 -5.35776e-05 317.196 11758.1 13683.2 
1008 0.8918 0.8918 0 0.00196407 0.00196407 -0.000190386 352.764 10916 14809.5 
1048 0.8838 0.8838 0 0.00172747 0.00172747 0.000325173 353.786 11469.6 14660.4 
1088 0.8328 0.8328 0 0.002063 0.002063 0.000399022 330.052 11104.8 13178.3 
1128 0.7538 0.7538 0 0.00188149 0.00188149 9.57121e-05 304.475 9920.59 13396.9 
1168 0.6414 0.6414 0 0.00203719 0.00203719 0.000282659 257.378 9779.23 13797.4 
1208 0.5032 0.5032 0 0.00246945 0.00246945 -0.00018104 201.284 11063 14061.9 
1248 0.2554 0.2554 0 0.00473069 0.00473069 4.81983e-05 96.2664 11667.2 13827.8 
9 0.543 0.543 0 0.0207953 0.0207953 -0.00012658 1127.01 103141 127978 
49 9.7714 9.7714 0 0.399223 0.399223 0.000427011 3992.23 208903 299645 
89 10.5058 10.5058 0 0.425451 0.425451 -0.000611823 4254.51 190548 277937 
129 10.953 10.953 0 0.441877 0.441877 -0.000541233 4418.77 192570 282397 
169 10.9102 10.9102 0 0.440516 0.440516 -0.000150151 4405.16 186575 268682 
209 10.7604 10.7604 0 0.435763 0.435763 -0.00139946 4357.63 182694 270153 
249 10.3612 10.3612 0 0.420667 0.420667 0.000602346 4206.67 186542 268323 
289 9.276 9.276 0 0.380542 0.380542 0.00171626 3805.42 206675 298814 
329 0.2706 0.2706 0 0.00516002 0.00516002 -0.000123486 103.687 14133.9 16480.7 
369 0.498 0.498 0 0.00273305 0.00273305 -9.89257e-08 200.322 8558.42 11139.3 
409 0.6308 0.6308 0 0.0018902 0.0018902 -0.000183613 250.135 9314.88 13250.4 
449 0.7624 0.7624 0 0.00181621 0.00181621 -6.13892e-05 302.11 9827.45 13329.4 
489 0.8512 0.8512 0 0.0022849 0.0022849 0.000212018 339.114 9914.74 14170.5 
529 0.8754 0.8754 0 0.0022273 0.0022273 0.000307886 350.01 10505.9 15018.6 
569 0.8702 0.8702 0 0.00183447 0.00183447 -4.9153e-05 348.266 12393.3 15948.6 
609 0.8128 0.8128 0 0.00330098 0.00330098 4.61451e-05 324.74 11317.4 13080.9 
649 0.1732 0.1732 0 -0.00685589 -0.00685589 5.34086e-05 68.5589 665.997 917.629 
689 0.2388 0.2388 0 -0.00925336 -0.00925336 4.40498e-05 92.5336 1419.24 1919.94 
729 0.2326 0.2326 0 -0.00927279 -0.00927279 -0.000108301 92.7279 2903.6 4144.51 
769 0.2428 0.2428 0 -0.00968058 -0.00968058 -4.3414e-05 96.8058 3645.32 5649.79 
809 0.2298 0.2298 0 -0.00921968 -0.00921968 0.000193749 92.1968 2882.51 4344.42 
849 0.234 0.234 0 -0.00935981 -0.00935981 8.75006e-05 93.5981 2088.55 2860.11 
889 0.2148 0.2148 0 -0.0085117 -0.0085117 0.00022965 85.117 1838.22 2231.41 
929 0.1754 0.1754 0 -0.00690851 -0.00690851 4.21807e-05 69.0851 1115.58 2059.81 
969 0.7786 0.7786 0 0.00288584 0.00288584 -0.000495055 312.233 11016.2 15740.5 
1009 0.8712 0.8712 0 0.00221513 0.00221513 -5.95295e-05 347.595 10552.1 15033.1 
1049 0.8902 0.8902 0 0.00205969 0.00205969 0.000100495 354.487 10089.1 14749.7 
1089 0.7938 0.7938 0 0.00234502 0.00234502 3.88042e-05 319.514 11075.6 15875.4 
1129 0.7278 0.7278 0 0.00190178 0.00190178 -0.000384671 291.036 10538.7 13678.2 
1169 0.6258 0.6258 0 0.00205519 0.00205519 0.000103425 250.198 9681.8 13790.9 
1209 0.505 0.505 0 0.00259032 0.00259032 0.000256356 202.808 9945.96 13640.9 
10 0.6572 0.6572 0 0.0262139 0.0262139 0.000149425 1356 127258 156040 
50 9.8786 9.8786 0 0.40367 0.40367 0.000537031 4036.7 211439 308067 
90 10.7012 10.7012 0 0.433483 0.433483 0.000456732 4334.83 200949 294789 
130 10.9276 10.9276 0 0.441369 0.441369 0.000338662 4413.69 175425 260540 
170 11.0858 11.0858 0 0.448123 0.448123 0.000602866 4481.23 187029 272580 
210 10.9276 10.9276 0 0.441569 0.441569 2.64464e-05 4415.69 190276 279578 
250 10.3936 10.3936 0 0.421517 0.421517 -0.00011874 4215.17 199735 280181 
290 9.2864 9.2864 0 0.381302 0.381302 0.00020451 3813.02 211967 302449 
330 0.3362 0.3362 0 0.00601987 0.00601987 0.000167187 130.865 16730.9 19145.1 
370 0.4904 0.4904 0 0.00272863 0.00272863 -1.02267e-05 198.049 10132.7 13271.7 
410 0.6558 0.6558 0 0.00190362 0.00190362 0.000257876 261.038 11059.7 14345.7 
450 0.7314 0.7314 0 0.00181715 0.00181715 -0.000373338 293.042 8850.2 12071.8 
490 0.817 0.817 0 0.00230582 0.00230582 8.98006e-05 323.081 9153.77 13938.9 
530 0.879 0.879 0 0.00189746 0.00189746 9.01092e-06 346.041 11477.4 15116.1 
570 0.865 0.865 0 0.0021721 0.0021721 8.04582e-05 344.502 14707.4 18668.1 
610 0.8004 0.8004 0 0.00273077 0.00273077 -0.000396033 317.187 11749.7 18353.9 
650 0.1824 0.1824 0 -0.00716884 -0.00716884 -0.000139237 71.6884 846.714 837.326 
690 0.2254 0.2254 0 -0.00873827 -0.00873827 0.000157647 87.3827 1031.22 1808.62 
730 0.2222 0.2222 0 -0.00894432 -0.00894432 6.4183e-05 89.4432 3369.15 4308.76 
770 0.2554 0.2554 0 -0.0102065 -0.0102065 -6.64538e-05 102.065 3455.72 6006.13 
810 0.253 0.253 0 -0.0100558 -0.0100558 5.64109e-05 100.558 3808.7 5581.46 
850 0.2282 0.2282 0 -0.009247 -0.009247 -6.43814e-05 92.47 3625.33 4609.02 
890 0.2244 0.2244 0 -0.00892013 -0.00892013 -0.000140494 89.2013 1482.56 1544.92 
930 0.164 0.164 0 -0.00641698 -0.00641698 -7.89481e-05 64.1698 972.863 1388.27 
970 0.8084 0.8084 0 0.00298168 0.00298168 -7.95086e-06 323.617 11306.6 15652.5 
1010 0.8826 0.8826 0 0.00224665 0.00224665 -0.000545495 352.322 11023.9 15381.1 
1050 0.8404 0.8404 0 0.00163551 0.00163551 8.07218e-05 337.197 11274.9 16120.7 
1090 0.8384 0.8384 0 0.0019984 0.0019984 -0.000170582 334.638 12002.5 15919.3 
1130 0.7624 0.7624 0 0.00214829 0.00214829 9.59522e-05 302.876 9503.06 14121.2 
1170 0.6518 0.6518 0 0.00177262 0.00177262 0.000226714 257.327 10172.6 14259.4 
1210 0.4944 0.4944 0 0.00281428 0.00281428 8.45536e-05 199.606 8929.39 12861.1 
11 0.7898 0.7898 0 0.0326044 0.0326044 0.000106078 1656.7 160631 207788 
51 9.8184 9.8184 0 0.401809 0.401809 0.000100819 4018.09 204433 298931 
91 10.4778 10.4778 0 0.423373 0.423373 -0.0012302 4233.73 192591 274714 
131 10.8742 10.8742 0 0.437914 0.437914 0.000419032 4379.14 183274 272580 
171 10.8688 10.8688 0 0.439167 0.439167 -0.00101177 4391.67 178993 264843 
211 10.7694 10.7694 0 0.434392 0.434392 -0.000394103 4343.92 186630 271340 
251 10.578 10.578 0 0.428634 0.428634 -0.00135402 4286.34 192740 285494 
291 9.2094 9.2094 0 0.37742 0.37742 0.000570713 3774.2 212720 302133 
331 0.386 0.386 0 0.00687869 0.00687869 5.35717e-05 152.806 17461.6 20774.6 
371 0.4956 0.4956 0 0.00208054 0.00208054 -1.37913e-05 199.852 9309.81 12497.8 
411 0.6424 0.6424 0 0.00176741 0.00176741 -0.000186496 257.867 9385.77 13747.3 
451 0.7552 0.7552 0 0.00199972 0.00199972 0.000149152 302.688 9640.53 14421.6 
491 0.825 0.825 0 0.00170431 0.00170431 0.000133288 333.26 9371.19 13850.2 
531 0.883 0.883 0 0.00204357 0.00204357 -0.000151205 352.135 10635.6 15240.3 
571 0.908 0.908 0 0.00238519 0.00238519 -5.92834e-05 358.294 9312.7 14257.7 
611 0.779 0.779 0 0.00316399 0.00316399 -5.79254e-05 307.835 10142.9 15082.1 
651 0.196 0.196 0 -0.00745117 -0.00745117 -0.000119455 74.5117 1655.91 1809.19 
691 0.2396 0.2396 0 -0.0091685 -0.0091685 0.000212678 91.685 1353.92 1922.25 
731 0.2258 0.2258 0 -0.00905252 -0.00905252 -5.12469e-05 90.5252 2988 4340.07 
771 0.2488 0.2488 0 -0.0101131 -0.0101131 6.43903e-05 101.131 2481.77 4203.26 
811 0.2338 0.2338 0 -0.00953519 -0.00953519 -0.000228867 95.3519 3067.97 4787.24 
851 0.2296 0.2296 0 -0.00924004 -0.00924004 -0.000172187 92.4004 3115.7 4708.65 
891 0.2284 0.2284 0 -0.00896336 -0.00896336 4.51839e-05 89.6336 1834.43 2439.74 
931 0.157 0.157 0 -0.00610967 -0.00610967 -5.9328e-07 61.0967 579.16 1090.75 
971 0.808 0.808 0 0.00293097 0.00293097 -6.68476e-05 322.505 12345.7 16082.3 
1011 0.889 0.889 0 0.00204574 0.00204574 0.000293841 352.589 11240.4 15133.4 
1051 0.8816 0.8816 0 0.00234191 0.00234191 -0.000103792 353.284 9865.71 13122.9 
1091 0.7896 0.7896 0 0.00150094 0.00150094 -0.000605248 312.073 7926.61 10722 
1131 0.7458 0.7458 0 0.00158812 0.00158812 -0.000318737 294.568 10399.9 14012.6 
1171 0.6236 0.6236 0 0.00203338 0.00203338 -0.000326183 248.057 9158.95 12224.3 
1211 0.4962 0.4962 0 0.00243341 0.00243341 5.10411e-05 198.452 8309.07 11226.2 
12 0.8962 0.8962 0 0.0380348 0.0380348 0.000412535 1882.29 189766 236171 
52 9.8736 9.8736 0 0.40309 0.40309 -0.000662331 4030.9 205120 299638 
92 10.6868 10.6868 0 0.432993 0.432993 0.000456121 4329.93 193035 278080 
132 10.7478 10.7478 0 0.434167 0.434167 -0.00234293 4341.67 186545 270145 
172 10.9368 10.9368 0 0.441501 0.441501 0.000273441 4415.01 181871 266529 
212 10.7342 10.7342 0 0.432747 0.432747 0.00127876 4327.47 180777 263642 
252 10.399 10.399 0 0.421707 0.421707 -0.00118498 4217.07 193148 283082 
292 9.1712 9.1712 0 0.377214 0.377214 -0.000970735 3772.14 216594 312699 
332 0.4324 0.4324 0 0.00689115 0.00689115 2.77523e-05 167.754 19460.4 23533.7 
372 0.5172 0.5172 0 0.00266264 0.00266264 0.0003064 209.221 11625.7 13961 
412 0.6416 0.6416 0 0.0018208 0.0018208 -6.17061e-05 252.363 9313.6 12786.6 
452 0.733 0.733 0 0.0016457 0.0016457 0.000194972 292.124 9824.13 13438.5 
492 0.8504 0.8504 0 0.00151753 0.00151753 -0.000424066 343.977 11338.2 16254.8 
532 0.8804 0.8804 0 0.00236748 0.00236748 3.49273e-05 349.542 11355.5 14888.5 
572 0.899 0.899 0 0.00223982 0.00223982 -0.00016479 354.949 12194.6 17458.1 
612 0.7846 0.7846 0 0.00322319 0.00322319 0.000266076 310.879 11163.1 15029.3 
652 0.2028 0.2028 0 -0.00790184 -0.00790184 -4.58e-05 79.0184 519.97 1321.8 
692 0.2296 0.2296 0 -0.00887003 -0.00887003 -7.8346e-05 88.7003 2060.53 3256.71 
732 0.2302 0.2302 0 -0.0089418 -0.0089418 8.29024e-06 89.418 2665.61 3755.62 
772 0.2482 0.2482 0 -0.010052 -0.010052 -0.000342915 100.52 3644.69 5138.51 
812 0.2352 0.2352 0 -0.00950809 -0.00950809 0.000167197 95.0809 2684.77 3959.97 
852 0.2196 0.2196 0 -0.00890469 -0.00890469 5.67785e-05 89.0469 3201.9 4444.73 
892 0.22 0.22 0 -0.00880352 -0.00880352 -5.4589e-05 88.0352 1141.39 1788.67 
932 0.15 0.15 0 -0.00588755 -0.00588755 -1.48631e-05 58.8755 1404.17 1615.04 
972 0.808 0.808 0 0.00268385 0.00268385 -0.000347429 318.21 10742.6 14341.5 
1012 0.9182 0.9182 0 0.00220931 0.00220931 0.000241663 365.015 10229.7 14750.3 
1052 0.8854 0.8854 0 0.00233233 0.00233233 -0.000426715 353.662 11697.3 14513.5 
1092 0.8358 0.8358 0 0.0021036 0.0021036 0.000201192 331.311 10929.2 14594.1 
1132 0.7622 0.7622 0 0.00184837 0.00184837 0.000678008 304.244 8853.89 12297.5 
1172 0.62 0.62 0 0.00227812 0.00227812 -0.000210694 244.263 8659.13 11947 
1212 0.4812 0.4812 0 0.00281829 0.00281829 -9.33909e-05 191.855 10277.4 13814.6 
13 0.9176 0.9176 0 0.0399376 0.0399376 -0.000330104 1961.76 197600 253891 
53 9.9214 9.9214 0 0.403915 0.403915 0.000900854 4039.15 212457 300786 
93 10.758 10.758 0 0.435879 0.435879 0.0014623 4358.79 194887 284398 