ITEM: TIMESTEP
25000
ITEM: NUMBER OF SURFS
1296
ITEM: BOX BOUNDS oo rr pp
0 0.3
0 0.3
-0.5 0.5
ITEM: SURFS id f_4[1] f_4[2] f_4[3] f_4[4] f_4[5] f_4[6] f_4[7] f_4[8] f_4[9] 
1 0.3854 0.3854 0 0.00494208 0.00494208 -0.000189058 313.832 31131.2 39071.4 
41 2.2174 2.2174 0 0.0863109 0.0863109 0.000704807 1875.35 145929 197274 
81 9.3918 9.3918 0 0.385428 0.385428 -0.000588181 3854.28 219898 317106 
121 10.5154 10.5154 0 0.425534 0.425534 0.000441958 4255.34 200217 289913 
161 10.7062 10.7062 0 0.433789 0.433789 4.67609e-05 4337.89 189533 275761 
201 10.9546 10.9546 0 0.442882 0.442882 -0.000775604 4428.82 193995 285111 
241 10.8424 10.8424 0 0.438791 0.438791 -0.00123716 4387.91 201188 289490 
281 10.2942 10.2942 0 0.419771 0.419771 0.000283481 4197.71 204668 290840 
321 8.3994 8.3994 0 0.348475 0.348475 -0.00142951 3484.75 238125 333856 
361 1.127 1.127 0 0.0398363 0.0398363 -0.000169334 970.691 111950 140423 
401 0.696 0.696 0 0.00535026 0.00535026 0.000209466 282.774 16778.4 22669.9 
441 0.7374 0.7374 0 0.00336577 0.00336577 -0.000162893 297.768 12985.8 18404.2 
481 0.8368 0.8368 0 0.00218333 0.00218333 0.00022012 333.253 11849.3 16557.7 
521 0.915 0.915 0 0.00236821 0.00236821 2.94435e-05 363.734 13589.7 17778 
561 0.9228 0.9228 0 0.0022294 0.0022294 -0.000122579 368.453 14968.9 19999.9 
601 0.9104 0.9104 0 0.00201346 0.00201346 -0.000216431 360.997 11264.3 15730.9 
641 0.7906 0.7906 0 0.00324247 0.00324247 -0.00017382 318.47 12104.7 16430.5 
681 0.0762 0.0762 0 -0.00125296 -0.00125296 5.65813e-05 57.7483 2906.47 3471.73 
721 0.2284 0.2284 0 -0.00891939 -0.00891939 -0.000133009 89.1939 289.001 548.965 
761 0.2466 0.2466 0 -0.0094484 -0.0094484 7.18897e-05 94.484 1404.07 2899.98 
801 0.2484 0.2484 0 -0.00967416 -0.00967416 7.51253e-05 96.7416 2200.05 3368.37 
841 0.2394 0.2394 0 -0.00965827 -0.00965827 0.000138513 96.5827 4528.85 5617.7 
881 0.248 0.248 0 -0.0100155 -0.0100155 -0.000213962 100.155 3908.69 5474.07 
921 0.2268 0.2268 0 -0.00889898 -0.00889898 9.18951e-05 88.9898 2246.48 2732.47 
961 0.2248 0.2248 0 -0.00889844 -0.00889844 -8.82583e-05 88.9844 907.694 1392.45 
1001 0.06 0.06 0 -0.00132722 -0.00132722 -0.000106177 46.3111 2630.6 2150.6 
1041 0.7484 0.7484 0 0.00382062 0.00382062 -0.000253208 301.862 12481.3 16218.8 
1081 0.9344 0.9344 0 0.00243232 0.00243232 -5.20621e-05 374.087 10704 16189.2 
1121 0.9244 0.9244 0 0.00224784 0.00224784 0.000151563 367.249 11641.1 15810.3 
1161 0.885 0.885 0 0.00228867 0.00228867 -1.18607e-05 353.499 11244.5 15417.1 
1201 0.827 0.827 0 0.00230521 0.00230521 0.000205196 326.344 10486.8 14296.4 
1241 0.7508 0.7508 0 0.00319507 0.00319507 -0.000205148 302.652 14313.5 19780.9 
1281 0.693 0.693 0 0.00460432 0.00460432 -8.88302e-05 274.021 14338.8 19003.4 
2 0.3734 0.3734 0 0.00564588 0.00564588 -9.05629e-05 315.166 30282.6 35777.2 
42 2.249 2.249 0 0.090396 0.090396 -0.000219344 1919.62 184836 244895 
82 9.6076 9.6076 0 0.394301 0.394301 -0.000750487 3943.01 223127 321807 
122 10.582 10.582 0 0.427923 0.427923 -0.000867934 4279.23 200157 295694 
162 10.8812 10.8812 0 0.440277 0.440277 0.000255703 4402.77 192996 276997 
202 10.9036 10.9036 0 0.440888 0.440888 -0.000296005 4408.88 186752 275266 
242 10.815 10.815 0 0.436833 0.436833 0.000250828 4368.33 196530 287459 
282 10.219 10.219 0 0.416504 0.416504 0.000211387 4165.04 204944 300041 
322 8.2934 8.2934 0 0.345823 0.345823 -0.000781245 3458.23 237226 335724 
362 1.3398 1.3398 0 0.0448989 0.0448989 6.56547e-05 1139.59 111327 142781 
402 0.7062 0.7062 0 0.00539243 0.00539243 0.000241086 286.116 17638.3 22403.3 
442 0.7254 0.7254 0 0.00279822 0.00279822 0.000376082 292.989 12451.1 15449.2 
482 0.8286 0.8286 0 0.00258713 0.00258713 0.000206969 331.903 11839.8 15634.3 
522 0.8916 0.8916 0 0.00214219 0.00214219 -0.000130194 356.443 10482.7 15085.7 
562 0.921 0.921 0 0.00282689 0.00282689 0.000297391 363.495 10755 14789.4 
602 0.9264 0.9264 0 0.00257891 0.00257891 -0.000192326 366.978 11110.9 14956.7 
642 0.7696 0.7696 0 0.002966 0.002966 0.00013737 305.19 11261.6 16408.1 
682 0.0716 0.0716 0 -0.00122761 -0.00122761 -1.19097e-05 52.7419 3945.5 4802.07 
722 0.2288 0.2288 0 -0.00867678 -0.00867678 -6.36855e-05 86.7678 1040.62 1863.49 
762 0.2326 0.2326 0 -0.00923952 -0.00923952 5.64892e-05 92.3952 1724.68 2893.91 
802 0.2406 0.2406 0 -0.00954115 -0.00954115 9.93188e-05 95.4115 2731.49 4193.62 
842 0.2594 0.2594 0 -0.0101025 -0.0101025 3.71434e-05 101.025 2723.97 3976.12 
882 0.2332 0.2332 0 -0.00913949 -0.00913949 -6.83343e-09 91.3949 2640.41 4293.46 
922 0.2392 0.2392 0 -0.00943331 -0.00943331 0.000122169 94.3331 1062.5 1919.1 
962 0.231 0.231 0 -0.00912919 -0.00912919 -8.88356e-05 91.2919 751.384 815.216 
1002 0.0746 0.0746 0 -0.00152931 -0.00152931 2.03454e-05 56.2661 1145.86 1842.8 
1042 0.7656 0.7656 0 0.0032565 0.0032565 -1.01592e-05 303.357 10538.5 14358.4 
1082 0.9118 0.9118 0 0.00216349 0.00216349 0.000118244 362.527 9933.13 14496.5 
1122 0.9282 0.9282 0 0.00265293 0.00265293 0.000125066 366.573 12175 15915.9 
1162 0.8908 0.8908 0 0.00262935 0.00262935 -0.000204174 350.856 10739 14914.9 
1202 0.8304 0.8304 0 0.0024308 0.0024308 -0.000293265 332.558 11625.1 16007.7 
1242 0.7388 0.7388 0 0.00316431 0.00316431 -0.000219651 299.039 12726.9 16535.5 
1282 0.723 0.723 0 0.00536073 0.00536073 6.50708e-05 291.603 17108.1 22657.9 
3 0.3942 0.3942 0 0.00637026 0.00637026 0.000135463 323.466 34902.9 39232.1 
43 2.196 2.196 0 0.0900111 0.0900111 6.99875e-05 1886.85 190343 248219 
83 9.657 9.657 0 0.394408 0.394408 -0.000729471 3944.08 224523 322404 
123 10.4876 10.4876 0 0.424626 0.424626 5.15813e-05 4246.26 197077 287463 
163 10.797 10.797 0 0.437348 0.437348 -0.000717186 4373.48 194052 284570 
203 10.9654 10.9654 0 0.443063 0.443063 0.000189571 4430.63 178180 271572 
243 10.8116 10.8116 0 0.437069 0.437069 -7.55166e-06 4370.69 188133 276036 
283 10.32 10.32 0 0.420474 0.420474 -3.66354e-05 4204.74 204978 299991 
323 8.2854 8.2854 0 0.345426 0.345426 -0.00135828 3454.26 254623 351576 
363 1.2468 1.2468 0 0.0412415 0.0412415 -0.000108716 1061 104604 132450 
403 0.701 0.701 0 0.00516389 0.00516389 6.72563e-05 282.097 15973.9 20146 
443 0.7626 0.7626 0 0.00299583 0.00299583 0.00022157 308.22 13337 17771.8 
483 0.8378 0.8378 0 0.00316225 0.00316225 0.000143516 329.06 10938.3 13392.6 
523 0.8842 0.8842 0 0.00236289 0.00236289 -0.000139863 355.288 10810.4 15987.3 
563 0.931 0.931 0 0.00241048 0.00241048 -7.29932e-05 368.657 12003.4 14991.2 
603 0.9002 0.9002 0 0.00233813 0.00233813 -6.27387e-05 355.686 9782.95 14878.6 
643 0.775 0.775 0 0.00340645 0.00340645 -1.91197e-05 308.796 10557.4 15906 
683 0.0658 0.0658 0 -0.00128645 -0.00128645 5.79037e-05 50.4574 3913.89 4190.15 
723 0.219 0.219 0 -0.00854324 -0.00854324 -0.00014074 85.4324 1425.45 2386.23 
763 0.2416 0.2416 0 -0.00940249 -0.00940249 -7.45777e-05 94.0249 1779.84 2453.66 
803 0.2414 0.2414 0 -0.00942 -0.00942 -0.000169435 94.2 2694.16 3757.19 
843 0.2708 0.2708 0 -0.0107819 -0.0107819 -4.22244e-05 107.819 3279.55 5375.35 
883 0.2486 0.2486 0 -0.00996287 -0.00996287 3.88204e-05 99.6287 3532.51 5280.16 
923 0.2284 0.2284 0 -0.00904952 -0.00904952 -7.11186e-05 90.4952 2366.83 3393.07 
963 0.2252 0.2252 0 -0.00879144 -0.00879144 -3.19865e-05 87.9144 1900 2868.29 
1003 0.0744 0.0744 0 -0.00155775 -0.00155775 9.08163e-05 58.4892 3118.17 3584.07 
1043 0.764 0.764 0 0.00319698 0.00319698 -8.25717e-05 303.755 10663.2 14927.7 
1083 0.9098 0.9098 0 0.00280142 0.00280142 -4.42855e-05 363.743 10980.9 14431.1 
1123 0.9232 0.9232 0 0.00231632 0.00231632 -0.000444085 362.547 11535.2 16758.1 
1163 0.8934 0.8934 0 0.00233015 0.00233015 0.000153409 352.641 12423.2 16458.7 
1203 0.8276 0.8276 0 0.00264739 0.00264739 -0.000627937 330.933 11164.2 15306.7 
1243 0.7512 0.7512 0 0.00303662 0.00303662 -0.000122639 303.632 11511.5 15655.9 
1283 0.718 0.718 0 0.00532343 0.00532343 0.000122335 291.32 16594.8 22511.9 
4 0.4312 0.4312 0 0.00690742 0.00690742 0.000105081 354.916 33520.8 41323.6 
44 2.135 2.135 0 0.0876725 0.0876725 0.000320917 1837.64 171646 224659 
84 9.7042 9.7042 0 0.397848 0.397848 -0.000399272 3978.48 220739 315243 
124 10.4672 10.4672 0 0.423706 0.423706 0.000684257 4237.06 198373 287727 
164 10.825 10.825 0 0.436827 0.436827 0.00029475 4368.27 181698 265428 
204 10.99 10.99 0 0.441947 0.441947 -0.00123445 4419.47 190372 274890 
244 10.6308 10.6308 0 0.430811 0.430811 0.00132928 4308.11 190988 276848 
284 10.238 10.238 0 0.417178 0.417178 -0.00103826 4171.78 201376 290128 
324 8.1092 8.1092 0 0.339844 0.339844 0.000351275 3398.44 257388 361203 
364 1.1904 1.1904 0 0.0381476 0.0381476 0.000722673 1001.1 94905.2 118345 
404 0.6978 0.6978 0 0.00500806 0.00500806 9.71595e-05 282.478 16184.5 20725.7 
444 0.7688 0.7688 0 0.00284792 0.00284792 -4.18134e-05 312.497 11906.2 15989.1 
484 0.8316 0.8316 0 0.00229769 0.00229769 0.000141797 328.008 12610.3 16495.4 
524 0.8694 0.8694 0 0.0026022 0.0026022 -0.000228749 347.075 11407.5 14880.2 
564 0.9296 0.9296 0 0.0021322 0.0021322 0.000228999 369.912 11104.1 13658.9 
604 0.9378 0.9378 0 0.00205546 0.00205546 0.000482393 372.427 13335.8 17340.4 
644 0.7488 0.7488 0 0.0032046 0.0032046 -5.42981e-05 299.83 11943.7 15909.4 
684 0.0596 0.0596 0 -0.00126557 -0.00126557 1.05735e-05 45.9344 3655.74 4124.82 
724 0.2424 0.2424 0 -0.00949991 -0.00949991 0.000174481 94.9991 1463.48 2681.48 
764 0.2372 0.2372 0 -0.00929041 -0.00929041 -9.9306e-05 92.9041 2134.78 2744.8 
804 0.2304 0.2304 0 -0.00933663 -0.00933663 6.90055e-05 93.3663 3288.75 4307.88 
844 0.2644 0.2644 0 -0.0106216 -0.0106216 -0.000194345 106.216 4122.64 5761.45 
884 0.243 0.243 0 -0.00972442 -0.00972442 0.000160834 97.2442 2433.69 3923.43 
924 0.2312 0.2312 0 -0.00900547 -0.00900547 5.89122e-06 90.0547 1516.98 2001.41 
964 0.2118 0.2118 0 -0.00830781 -0.00830781 -0.000118477 83.0781 935.891 1601.16 
1004 0.0782 0.0782 0 -0.00131786 -0.00131786 -7.78775e-06 58.5756 3356.77 3720.49 
1044 0.7996 0.7996 0 0.0032477 0.0032477 0.000410094 318.02 10891 15515.4 
1084 0.9416 0.9416 0 0.00242449 0.00242449 -0.000420913 374.487 14092.3 18263.8 
1124 0.9254 0.9254 0 0.00234002 0.00234002 0.00038798 365.771 11334.6 16553.9 
1164 0.8936 0.8936 0 0.00251916 0.00251916 -6.72729e-05 354.379 12064.8 16079.4 
1204 0.7996 0.7996 0 0.00272078 0.00272078 8.98467e-05 321.244 10230.4 13691.7 
1244 0.749 0.749 0 0.00308248 0.00308248 0.000160166 300.374 15592.7 20754.9 
1284 0.6886 0.6886 0 0.00517286 0.00517286 -0.000177249 275.867 15324.7 20031.6 
5 0.4008 0.4008 0 0.00693557 0.00693557 -0.000277149 331.05 32726.9 41147.1 
45 2.472 2.472 0 0.0985922 0.0985922 0.000875025 2078.24 165297 218251 
85 9.4936 9.4936 0 0.389531 0.389531 -0.000647126 3895.31 216321 313352 
125 10.5884 10.5884 0 0.430193 0.430193 -0.00027947 4301.93 199692 287798 
165 10.8686 10.8686 0 0.438842 0.438842 -0.000383589 4388.42 188277 275705 
205 10.8638 10.8638 0 0.439435 0.439435 0.00132984 4394.35 188639 279018 
245 10.7428 10.7428 0 0.434977 0.434977 0.000781969 4349.77 200413 295179 
285 10.1098 10.1098 0 0.412441 0.412441 7.56708e-05 4124.41 203645 296685 
325 3.9604 3.9604 0 0.165829 0.165829 0.000318427 3373.93 253378 355180 
365 1.0532 1.0532 0 0.0321303 0.0321303 -3.60788e-05 872.911 77560.4 102151 
405 0.6698 0.6698 0 0.00486167 0.00486167 8.26776e-05 270.265 16398.8 20357.7 
445 0.7554 0.7554 0 0.00298743 0.00298743 -3.12975e-05 302.143 12786.6 17402.3 
485 0.8456 0.8456 0 0.00229794 0.00229794 3.89612e-05 338.481 10268.1 15734.6 
525 0.879 0.879 0 0.00257187 0.00257187 -0.000163781 353.795 10436.3 14304.5 
565 0.9266 0.9266 0 0.00217268 0.00217268 -0.000196982 371.267 11710.4 14953.8 
605 0.9286 0.9286 0 0.00248902 0.00248902 -0.00018212 368.06 12248 16585.2 
645 0.7442 0.7442 0 0.00386813 0.00386813 0.000346157 294.911 11542.7 16134 
685 0.0648 0.0648 0 -0.00131329 -0.00131329 -8.29274e-05 48.4267 3060.75 3095.55 
725 0.2272 0.2272 0 -0.00882418 -0.00882418 0.000167898 88.2418 1148.46 2274.86 
765 0.241 0.241 0 -0.00958774 -0.00958774 -0.000298307 95.8774 2182.97 2354.66 
805 0.2484 0.2484 0 -0.00988406 -0.00988406 5.44059e-05 98.8406 2577.47 3567.74 
845 0.261 0.261 0 -0.010155 -0.010155 0.000160879 101.55 2670.48 4095.97 
885 0.2524 0.2524 0 -0.0100552 -0.0100552 0.000119661 100.552 2573.96 4310.9 
925 0.2388 0.2388 0 -0.00940567 -0.00940567 5.52575e-05 94.0567 2362.65 2581.04 
965 0.2266 0.2266 0 -0.00872782 -0.00872782 6.80794e-05 87.2782 966.44 1683.33 
1005 0.0798 0.0798 0 -0.0014039 -0.0014039 6.68591e-05 62.0636 3618.99 3991.31 
1045 0.7904 0.7904 0 0.00362063 0.00362063 0.000383404 312.496 13160.3 17595.8 
1085 0.8922 0.8922 0 0.00217887 0.00217887 0.000162354 354.369 13384.7 17598.6 
1125 0.942 0.942 0 0.0018278 0.0018278 -0.000143078 373.926 8412.04 12635.5 
1165 0.9002 0.9002 0 0.00242438 0.00242438 -6.56231e-05 361.171 12349 16501.5 
1205 0.8234 0.8234 0 0.00276514 0.00276514 -0.000269021 333.073 13239.4 17718.2 
1245 0.751 0.751 0 0.00314021 0.00314021 -0.000147299 302.153 10717.1 14687.6 
1285 0.7048 0.7048 0 0.00573277 0.00573277 0.000241362 285.365 17498.1 22238.4 
6 0.4346 0.4346 0 0.0073701 0.0073701 0.000426618 369.587 33708.8 39056 
46 2.7214 2.7214 0 0.109419 0.109419 0.000177499 2293.59 179972 242122 
86 9.5766 9.5766 0 0.392518 0.392518 0.00028047 3925.18 213262 305643 
126 10.5624 10.5624 0 0.429335 0.429335 -3.29553e-05 4293.35 192598 280372 
166 10.8254 10.8254 0 0.43706 0.43706 0.000948654 4370.6 187509 277069 
206 11.007 11.007 0 0.443963 0.443963 -0.000242791 4439.63 183210 271706 
246 10.6544 10.6544 0 0.430788 0.430788 0.00115007 4307.88 184768 275532 
286 10.221 10.221 0 0.417064 0.417064 -0.0010322 4170.64 216713 307253 
326 3.7002 3.7002 0 0.155994 0.155994 0.000190261 3165.73 244419 341053 
366 0.9894 0.9894 0 0.0313096 0.0313096 -0.000121757 848.294 82386.8 102886 
406 0.7028 0.7028 0 0.00487531 0.00487531 -0.000353697 281.915 15899.9 20607.7 
446 0.7638 0.7638 0 0.00304332 0.00304332 -0.000235378 303.009 11836.3 16837.3 
486 0.815 0.815 0 0.00249706 0.00249706 -6.34661e-05 321.938 11403.6 15138.2 
526 0.8756 0.8756 0 0.00213294 0.00213294 0.000182623 351.463 13135.5 16564.3 
566 0.918 0.918 0 0.00220006 0.00220006 -0.000170144 363.318 12079.2 15379.1 
606 0.889 0.889 0 0.00224673 0.00224673 6.38559e-05 355.294 11952.4 15825.7 
646 0.7064 0.7064 0 0.00421406 0.00421406 -0.000140239 282.363 11758 14701.7 
686 0.0648 0.0648 0 -0.0015385 -0.0015385 2.43938e-06 51.1609 3777.93 4785.21 
726 0.2294 0.2294 0 -0.00877525 -0.00877525 3.67176e-05 87.7525 1696.49 2074.72 
766 0.222 0.222 0 -0.00846219 -0.00846219 6.72057e-05 84.6219 1855.73 2795.26 
806 0.232 0.232 0 -0.00912417 -0.00912417 -7.81956e-05 91.2417 3073.64 3121.05 
846 0.2466 0.2466 0 -0.00976393 -0.00976393 -8.52968e-05 97.6393 3170.74 4395.31 
886 0.2378 0.2378 0 -0.00950199 -0.00950199 -5.33194e-05 95.0199 2192.79 2811.89 
926 0.2342 0.2342 0 -0.00931535 -0.00931535 3.43257e-05 93.1535 1203.47 1263.85 
966 0.2356 0.2356 0 -0.00891593 -0.00891593 0.000170021 89.1593 1465.64 2602.2 
1006 0.0812 0.0812 0 -0.00131216 -0.00131216 -2.41509e-05 62.8564 3634.51 3825.58 
1046 0.8284 0.8284 0 0.00306634 0.00306634 -0.000249048 326.535 11073 14586.2 
1086 0.9336 0.9336 0 0.00250081 0.00250081 0.000221951 372.011 12584.3 18034 
1126 0.8916 0.8916 0 0.00262045 0.00262045 0.000173195 353.372 11037.8 16527.9 
1166 0.8682 0.8682 0 0.00161665 0.00161665 -0.000273853 342.772 11343.2 15685.4 
1206 0.8192 0.8192 0 0.00280904 0.00280904 -0.000119678 326.825 11707.4 16675.3 
1246 0.7464 0.7464 0 0.00298896 0.00298896 5.78698e-05 298.046 11585.8 17738.1 
1286 0.709 0.709 0 0.00582843 0.00582843 4.95956e-06 286.829 18687.6 24138.9 
7 0.4478 0.4478 0 0.0078809 0.0078809 6.99355e-06 370.115 31742.1 38383.9 
47 2.6914 2.6914 0 0.109264 0.109264 -0.000688934 2278.39 178824 240385 
87 9.7924 9.7924 0 0.400508 0.400508 0.00136094 4005.08 211779 310244 
127 10.7062 10.7062 0 0.434465 0.434465 0.000241083 4344.65 198833 288308 
167 10.9966 10.9966 0 0.442666 0.442666 0.000491692 4426.66 188357 277632 
207 10.9744 10.9744 0 0.443359 0.443359 0.00112607 4433.59 185028 271552 
247 10.8414 10.8414 0 0.437777 0.437777 -0.00222154 4377.77 196368 284198 
287 10.2262 10.2262 0 0.41624 0.41624 -0.000512075 4162.4 213818 314743 
327 3.7692 3.7692 0 0.157954 0.157954 0.000238065 3201.93 231722 314688 
367 1.06 1.06 0 0.0330229 0.0330229 7.5958e-05 897.899 94842.1 118263 
407 0.6986 0.6986 0 0.00447818 0.00447818 0.000117704 279.217 16080.6 20609.6 
447 0.7592 0.7592 0 0.00294453 0.00294453 -9.47365e-05 302.675 12821.8 17108.6 
487 0.8486 0.8486 0 0.00224178 0.00224178 2.18506e-05 337.732 12194.2 16296.8 
527 0.8962 0.8962 0 0.00245837 0.00245837 0.000146795 353.813 13284.6 16186.9 
567 0.9172 0.9172 0 0.00228921 0.00228921 -0.000328503 367.072 12010.5 17544 
607 0.9142 0.9142 0 0.0018957 0.0018957 -0.000306716 363.017 10204 14360 
647 0.6952 0.6952 0 0.00421083 0.00421083 0.000151772 276.795 9508.89 12623.8 
687 0.0624 0.0624 0 -0.00146336 -0.00146336 -8.56423e-05 46.9587 2963.96 3195.79 
727 0.231 0.231 0 -0.00909884 -0.00909884 3.13712e-05 90.9884 879.589 1337.93 
767 0.2394 0.2394 0 -0.00926096 -0.00926096 2.48856e-05 92.6096 1808.41 2750.33 
807 0.254 0.254 0 -0.00996662 -0.00996662 -1.35835e-05 99.6662 2412.27 4320.79 
847 0.2396 0.2396 0 -0.00986292 -0.00986292 -6.76533e-05 98.6292 3257.49 5265.1 
887 0.2336 0.2336 0 -0.0093715 -0.0093715 -0.000163769 93.715 2702.99 3929.47 
927 0.2498 0.2498 0 -0.00964553 -0.00964553 6.09472e-05 96.4553 3175.51 3769.86 
967 0.2234 0.2234 0 -0.00864036 -0.00864036 6.08568e-05 86.4036 1636.61 2142.12 
1007 0.089 0.089 0 -0.00142716 -0.00142716 8.91311e-05 69.8519 2819.37 3405.62 
1047 0.8072 0.8072 0 0.00289474 0.00289474 0.000160625 324.598 11521.4 15766.7 
1087 0.9316 0.9316 0 0.00198974 0.00198974 0.000532658 371.271 8664.48 11705.3 
1127 0.933 0.933 0 0.00217894 0.00217894 0.000196202 368.164 13396.9 17801.1 
1167 0.891 0.891 0 0.00247562 0.00247562 0.000194665 354.856 9916.84 13819.8 
1207 0.8216 0.8216 0 0.00215972 0.00215972 -9.06436e-05 329.018 10091.5 13950.2 
1247 0.723 0.723 0 0.0028753 0.0028753 0.000104481 295.212 12754.6 16148.8 
1287 0.7066 0.7066 0 0.00628475 0.00628475 -0.000476317 288.691 20771.8 25139.8 
8 0.4702 0.4702 0 0.00870696 0.00870696 2.60641e-05 385.042 28166.3 35904.2 
48 2.744 2.744 0 0.112232 0.112232 -0.000423096 2325.01 190585 257539 
88 9.7068 9.7068 0 0.397445 0.397445 0.000317215 3974.45 214841 308514 
128 10.482 10.482 0 0.424503 0.424503 -0.000107203 4245.03 192905 285643 
168 10.8436 10.8436 0 0.43695 0.43695 3.69081e-05 4369.5 187301 274122 
208 10.7496 10.7496 0 0.434176 0.434176 0.000163715 4341.76 184052 271932 
248 10.7368 10.7368 0 0.43409 0.43409 0.000892755 4340.9 194498 279044 
288 10.161 10.161 0 0.413567 0.413567 -0.000126772 4135.67 212069 307901 
328 3.6904 3.6904 0 0.153751 0.153751 -0.000551096 3114.09 202538 281040 
368 0.9702 0.9702 0 0.0301058 0.0301058 -1.65713e-05 820.12 90787.4 114192 
408 0.7046 0.7046 0 0.00476762 0.00476762 4.64944e-05 283.1 16482.8 20499.7 
448 0.7612 0.7612 0 0.00243857 0.00243857 0.000248165 301.437 10957.4 14830 
488 0.8638 0.8638 0 0.00244882 0.00244882 8.14256e-05 342.906 12647.8 17071.1 
528 0.8798 0.8798 0 0.00194663 0.00194663 1.41817e-05 350.715 14422.8 18219.3 
568 0.9308 0.9308 0 0.00178314 0.00178314 0.000129216 367.661 10726.1 15077.4 
608 0.9152 0.9152 0 0.00222656 0.00222656 0.000237629 368.924 13028.3 16474.8 
648 0.6802 0.6802 0 0.00407038 0.00407038 2.48536e-06 273.989 14113.3 17632.3 
688 0.0554 0.0554 0 -0.00133922 -0.00133922 -0.00012576 42.286 2235.24 2368.89 
728 0.2316 0.2316 0 -0.00911759 -0.00911759 7.52299e-06 91.1759 1383.48 1766.08 
768 0.2336 0.2336 0 -0.00930982 -0.00930982 0.000173244 93.0982 2655.38 2983.52 
808 0.2388 0.2388 0 -0.00944432 -0.00944432 0.000221801 94.4432 2723.04 4034.11 
848 0.2464 0.2464 0 -0.00971093 -0.00971093 -0.000128023 97.1093 3897.38 5824.5 
888 0.2404 0.2404 0 -0.0096243 -0.0096243 -4.41271e-05 96.243 2340.52 2865.44 
928 0.2356 0.2356 0 -0.00923081 -0.00923081 -0.000181021 92.3081 1426.51 2068.52 
968 0.2304 0.2304 0 -0.00903402 -0.00903402 7.66303e-05 90.3402 1447.45 1660.9 
1008 0.0886 0.0886 0 -0.0013102 -0.0013102 3.04991e-05 68.076 3522.03 4618.88 
1048 0.8096 0.8096 0 0.00286872 0.00286872 -0.00041134 327.636 12577.1 16473.8 
1088 0.9108 0.9108 0 0.0019032 0.0019032 -0.00010924 362.056 12198.7 15966 
1128 0.9282 0.9282 0 0.00244624 0.00244624 -0.000246778 369.57 11502.7 14870.6 
1168 0.8552 0.8552 0 0.00240473 0.00240473 -0.000112369 340.226 11495.7 16611 
1208 0.816 0.816 0 0.00248543 0.00248543 0.000358022 327.519 10808.1 15427.2 
1248 0.7388 0.7388 0 0.00285847 0.00285847 0.000107419 298.59 12899.9 16617.8 
1288 0.713 0.713 0 0.00580546 0.00580546 -9.90896e-05 289.051 17793.9 24243.2 
9 0.507 0.507 0 0.00999421 0.00999421 -7.07253e-05 417.845 35360.4 44316.8 
49 2.7558 2.7558 0 0.116485 0.116485 0.000480773 2377.94 224929 299709 
89 9.8272 9.8272 0 0.402231 0.402231 0.000860129 4022.31 221972 321342 
129 10.5628 10.5628 0 0.427771 0.427771 -0.00159395 4277.71 203459 294903 
169 10.9996 10.9996 0 0.444366 0.444366 -0.00100497 4443.66 190831 277448 
209 11.0614 11.0614 0 0.447181 0.447181 0.000355435 4471.81 190180 277911 
249 10.695 10.695 0 0.432977 0.432977 -0.000366484 4329.77 196836 283168 
289 9.8792 9.8792 0 0.402883 0.402883 -0.000869323 4028.83 210169 304046 
329 3.5014 3.5014 0 0.146539 0.146539 0.000222364 2968.23 203210 276622 
369 1.0426 1.0426 0 0.0294241 0.0294241 -0.000251234 871.338 78241.7 101189 
409 0.7196 0.7196 0 0.00433443 0.00433443 0.000200958 289.733 14389.8 19478.8 
449 0.778 0.778 0 0.00282373 0.00282373 0.000137397 311.141 10640.4 14885.5 
489 0.863 0.863 0 0.00219322 0.00219322 0.000145562 339.904 11494.7 16611 
529 0.908 0.908 0 0.00241562 0.00241562 0.000514315 364.253 11446.6 16078.8 
569 0.933 0.933 0 0.00270912 0.00270912 -0.000418038 370.608 12297.5 15884.4 
609 0.924 0.924 0 0.00263392 0.00263392 -6.05757e-05 369.448 11173.8 15196.8 
649 0.3198 0.3198 0 0.00182883 0.00182883 -4.15211e-05 265.498 14462 17317.7 
689 0.0556 0.0556 0 -0.00139916 -0.00139916 2.14251e-05 42.0298 2021.39 1842.23 
729 0.222 0.222 0 -0.00864391 -0.00864391 -0.000193973 86.4391 1230.24 1386.88 
769 0.2402 0.2402 0 -0.00943027 -0.00943027 -5.39846e-05 94.3027 2074.01 2645.75 
809 0.2466 0.2466 0 -0.00987609 -0.00987609 -0.000110635 98.7609 3163.71 4265.84 
849 0.2704 0.2704 0 -0.0108426 -0.0108426 0.000431154 108.426 3324.57 4573.81 
889 0.2496 0.2496 0 -0.00975153 -0.00975153 7.79218e-05 97.5153 2385.98 4001.14 
929 0.2246 0.2246 0 -0.00859069 -0.00859069 -5.18027e-05 85.9069 1367.35 2540.46 
969 0.2174 0.2174 0 -0.00859259 -0.00859259 1.39341e-05 85.9259 2070.28 2591.05 
1009 0.0968 0.0968 0 -0.00114333 -0.00114333 -0.000150032 74.155 4031.41 3874.02 
1049 0.8232 0.8232 0 0.00288594 0.00288594 -0.00010233 328.387 11444.1 17228.4 
1089 0.8952 0.8952 0 0.00231863 0.00231863 -0.000220266 354.172 11875.9 16657.5 
1129 0.949 0.949 0 0.00198795 0.00198795 0.000133998 377.565 12508.6 17350.3 
1169 0.8832 0.8832 0 0.00274518 0.00274518 -6.24739e-05 353.071 11851.4 16512.4 
1209 0.8248 0.8248 0 0.00233 0.00233 -4.04199e-05 327.839 11261.8 15364.3 
1249 0.745 0.745 0 0.00344334 0.00344334 0.000185838 299.917 12805.4 15405.7 
1289 0.711 0.711 0 0.00641024 0.00641024 8.36949e-05 287.071 17781.4 23303.7 
10 0.5476 0.5476 0 0.0109717 0.0109717 -0.000109395 445.923 40173 47805.6 
50 2.7476 2.7476 0 0.116741 0.116741 5.0051e-05 2373.78 219715 297955 
90 9.8028 9.8028 0 0.402667 0.402667 -0.00123622 4026.67 212005 307313 
130 10.6896 10.6896 0 0.434559 0.434559 0.000481759 4345.59 195749 285989 
170 10.98 10.98 0 0.442967 0.442967 -0.000485722 4429.67 197032 285518 
210 10.9576 10.9576 0 0.442351 0.442351 -0.00150901 4423.51 189722 271810 
250 10.638 10.638 0 0.431056 0.431056 -0.000642616 4310.56 183418 269748 
290 10.1584 10.1584 0 0.414735 0.414735 0.000204398 4147.35 217430 317985 
330 3.7114 3.7114 0 0.153839 0.153839 -0.000184088 3119.47 189626 270170 
370 0.9196 0.9196 0 0.025196 0.025196 0.000148345 762.367 65244.7 81014.4 
410 0.7142 0.7142 0 0.00468479 0.00468479 -0.000122431 286.887 14867.9 19749.8 
450 0.7852 0.7852 0 0.00334394 0.00334394 0.000305864 314.936 11826.4 15396.2 
490 0.834 0.834 0 0.00256437 0.00256437 3.25419e-05 328.449 10934.1 14212.7 
530 0.8822 0.8822 0 0.00258233 0.00258233 -4.24424e-05 349.604 11734.6 16213.8 
570 0.927 0.927 0 0.00238387 0.00238387 0.000181982 366.196 13259.3 16996.6 
610 0.8954 0.8954 0 0.00208368 0.00208368 -0.000214097 355.991 13657.4 17067 
650 0.327 0.327 0 0.00151842 0.00151842 -0.00016237 266.472 12051.8 14263.5 
690 0.0544 0.0544 0 -0.00144738 -0.00144738 4.444e-05 42.1044 1428.85 2249.77 
730 0.23 0.23 0 -0.00881861 -0.00881861 8.30584e-05 88.1861 1771.08 2594.39 
770 0.237 0.237 0 -0.00932469 -0.00932469 -4.8782e-05 93.2469 1145.38 1724.23 
810 0.2392 0.2392 0 -0.00966545 -0.00966545 -1.47393e-06 96.6545 4032.14 4612.69 
850 0.255 0.255 0 -0.0103339 -0.0103339 -4.70748e-05 103.339 4045.38 5140.9 
890 0.233 0.233 0 -0.00921567 -0.00921567 -6.87097e-05 92.1567 2787.26 3358.33 
930 0.235 0.235 0 -0.00909777 -0.00909777 4.17866e-05 90.9777 2393.92 2636.73 
970 0.2136 0.2136 0 -0.00833176 -0.00833176 -4.94058e-05 83.3176 776.252 1316.35 
1010 0.1034 0.1034 0 -0.00145843 -0.00145843 -1.57595e-06 81.2804 5433.92 5547.98 
1050 0.7824 0.7824 0 0.0027064 0.0027064 0.000371045 314.769 12153.6 15508.9 
1090 0.9262 0.9262 0 0.00247582 0.00247582 -4.81153e-05 367.326 11939.3 16018.3 
1130 0.928 0.928 0 0.00159879 0.00159879 0.000123097 366.222 11374.3 16217.8 
1170 0.8624 0.8624 0 0.00254614 0.00254614 4.79086e-05 344.025 10964 13812.3 
1210 0.8022 0.8022 0 0.00205105 0.00205105 0.000303248 317.591 10641.9 14730.9 
1250 0.7362 0.7362 0 0.0030735 0.0030735 -2.23549e-05 293.471 10818.5 13924.3 
1290 0.737 0.737 0 0.00733341 0.00733341 0.000218393 299.526 21537.1 27309.8 
11 0.5942 0.5942 0 0.012996 0.012996 -2.80477e-05 487.11 42328.3 56745.1 
51 2.672 2.672 0 0.112768 0.112768 0.000214551 2298.68 193744 263821 
91 9.742 9.742 0 0.398754 0.398754 0.00069809 3987.54 211791 306977 
131 10.5748 10.5748 0 0.427655 0.427655 0.000405057 4276.55 197459 286000 
171 10.8304 10.8304 0 0.437009 0.437009 0.000445689 4370.09 188003 268437 
211 10.9944 10.9944 0 0.444637 0.444637 0.00120478 4446.37 195534 284276 
251 10.7266 10.7266 0 0.434971 0.434971 0.000202368 4349.71 206931 299908 
291 10.1698 10.1698 0 0.414652 0.414652 -0.00133691 4146.52 210016 310615 
331 3.5214 3.5214 0 0.144873 0.144873 0.000461829 2941.42 170864 241826 
371 0.7676 0.7676 0 0.0205381 0.0205381 0.00010873 633.342 52688.5 67525 
411 0.6976 0.6976 0 0.00403445 0.00403445 -0.000328356 281.087 15383.3 20384.6 
451 0.7656 0.7656 0 0.00281746 0.00281746 1.80497e-05 302.297 13343 17218.2 
491 0.8666 0.8666 0 0.0028847 0.0028847 -0.00021121 345.496 12288.9 16147.8 
531 0.8884 0.8884 0 0.00231341 0.00231341 0.000250847 356.511 12504.5 16595.1 
571 0.9282 0.9282 0 0.0020752 0.0020752 -7.10551e-05 365.825 9879.67 14622.1 
611 0.92 0.92 0 0.00235096 0.00235096 5.88965e-05 365.615 12400.7 15710.3 
651 0.3164 0.3164 0 0.00136343 0.00136343 3.32144e-05 255.811 10002.7 11814.4 
691 0.0592 0.0592 0 -0.00158574 -0.00158574 8.20828e-05 43.7034 1045.96 1137.09 
731 0.2436 0.2436 0 -0.00950863 -0.00950863 -4.41123e-05 95.0863 1598.98 1711.72 
771 0.224 0.224 0 -0.00880392 -0.00880392 -4.41953e-05 88.0392 1692.61 2857.78 
811 0.2358 0.2358 0 -0.00955507 -0.00955507 -4.35852e-05 95.5507 2108.32 3188.29 
851 0.254 0.254 0 -0.0100721 -0.0100721 0.000136289 100.721 4045.97 5797.4 
891 0.2404 0.2404 0 -0.00960967 -0.00960967 4.95396e-05 96.0967 2696.74 4127.56 
931 0.242 0.242 0 -0.00956602 -0.00956602 -5.60919e-05 95.6602 1209.47 2295.79 
971 0.2064 0.2064 0 -0.00798957 -0.00798957 -0.000122971 79.8957 1009.53 2147.23 
1011 0.109 0.109 0 -0.00134145 -0.00134145 -1.66168e-05 84.7029 4506.55 6379.71 
1051 0.8398 0.8398 0 0.00300666 0.00300666 6.68795e-05 334.099 10791 15769.8 
1091 0.9238 0.9238 0 0.0027964 0.0027964 0.000352625 369.97 15234.4 18780.4 
1131 0.922 0.922 0 0.00225859 0.00225859 0.000330003 365.701 12444.9 15560.6 
1171 0.8604 0.8604 0 0.00214151 0.00214151 0.000372152 342.248 9550.33 14450.3 
1211 0.8012 0.8012 0 0.00304821 0.00304821 0.000138821 323.884 10746.4 15972.1 
1251 0.7218 0.7218 0 0.00281361 0.00281361 0.000279134 288.035 13678.6 18419.5 
1291 0.7244 0.7244 0 0.00752863 0.00752863 -2.49307e-05 294.789 22720.5 26207.8 
12 0.6664 0.6664 0 0.0152447 0.0152447 0.000296658 554.253 44298.4 56043.7 
52 2.9978 2.9978 0 0.125252 0.125252 -0.000336646 2556.64 198474 271300 
92 9.9352 9.9352 0 0.407076 0.407076 -0.00104594 4070.76 219666 312365 
132 10.672 10.672 0 0.430213 0.430213 -0.000806216 4302.13 192913 280681 
172 10.9136 10.9136 0 0.439873 0.439873 0.000318632 4398.73 187832 270305 
212 10.8196 10.8196 0 0.436883 0.436883 0.000551577 4368.83 190352 278216 
252 10.589 10.589 0 0.429025 0.429025 -0.00162972 4290.25 200809 288141 
292 9.9936 9.9936 0 0.407785 0.407785 -0.000870017 4077.85 208860 302143 
332 3.2686 3.2686 0 0.135632 0.135632 -0.000402853 2752.48 183149 260845 
372 0.7052 0.7052 0 0.0186892 0.0186892 0.000310597 590.81 55510.2 69996.8 
412 0.6696 0.6696 0 0.0038037 0.0038037 0.000157634 270.519 11850.4 17492 
452 0.79 0.79 0 0.00323597 0.00323597 -0.000339305 318.817 12472.7 16131.3 
492 0.8442 0.8442 0 0.00243105 0.00243105 0.000152355 337.154 10962 14471.4 
532 0.8892 0.8892 0 0.00247517 0.00247517 0.000350066 356.348 13801.4 17341.4 
572 0.9114 0.9114 0 0.00238374 0.00238374 0.000221595 362.817 9004.47 13421 
612 0.924 0.924 0 0.00247494 0.00247494 -7.37682e-05 368.045 11547 15382.3 
652 0.289 0.289 0 0.000887322 0.000887322 -0.00011464 231.354 11443.3 15507.7 
692 0.0642 0.0642 0 -0.00191051 -0.00191051 5.90312e-05 49.6669 1752.99 2216.28 
732 0.2342 0.2342 0 -0.00933257 -0.00933257 8.189e-05 93.3257 578.211 901.723 
772 0.2242 0.2242 0 -0.0088881 -0.0088881 0.000268154 88.881 1705.3 2619.7 
812 0.243 0.243 0 -0.00972569 -0.00972569 -0.000151181 97.2569 1937.24 3426.51 