ITEM: TIMESTEP
25000
ITEM: NUMBER OF SURFS
1260
ITEM: BOX BOUNDS oo rr pp
0 0.3
0 0.3
-0.5 0.5
ITEM: SURFS id f_4[1] f_4[2] f_4[3] f_4[4] f_4[5] f_4[6] f_4[7] f_4[8] f_4[9] 
1 0.001 0.001 0 2.9321e-06 2.9321e-06 -5.56952e-07 21.8837 1773.54 2130.28 
41 9.1882 9.1882 0 0.0389319 0.0389319 4.99666e-07 388.073 30326.8 42269.4 
81 10.1808 10.1808 0 0.0423058 0.0423058 9.81315e-05 421.704 27709.2 38564.8 
121 10.6002 10.6002 0 0.0438189 0.0438189 5.44599e-05 436.787 25806 35601 
161 10.7948 10.7948 0 0.0444816 0.0444816 -5.05031e-07 443.392 24977.9 34672 
201 10.656 10.656 0 0.0440847 0.0440847 2.73128e-05 439.436 26063.9 35986.4 
241 10.408 10.408 0 0.043077 0.043077 -1.27321e-05 429.391 26937 37344 
281 9.5334 9.5334 0 0.0400603 0.0400603 2.67543e-05 399.321 29192.9 40440.3 
321 0.0054 0.0054 0 2.23725e-05 2.23725e-05 2.47217e-08 111.607 10441.7 20426.9 
361 0.6152 0.6152 0 0.000847538 0.000847538 -2.5934e-05 26.6746 4586.83 6362.89 
401 0.7466 0.7466 0 0.000783849 0.000783849 -1.38288e-05 33.2191 5287.29 7042.5 
441 0.8362 0.8362 0 0.000731038 0.000731038 -3.16586e-06 37.2586 5672.77 7281.03 
481 0.8916 0.8916 0 0.000634571 0.000634571 7.57542e-06 39.529 5254.48 6928.13 
521 0.9152 0.9152 0 0.000651766 0.000651766 5.21766e-06 39.7717 4812.03 6463.43 
561 0.9272 0.9272 0 0.000677476 0.000677476 8.22494e-06 40.282 4714.17 6493.21 
601 0.8264 0.8264 0 0.000655315 0.000655315 3.70715e-05 36.1504 4459.62 5936.03 
641 0.0002 0.0002 0 -4.88701e-07 -4.88701e-07 0 2.90294 -1.3247e-12 -1.3247e-12 
681 0.1214 0.1214 0 -0.000486313 -0.000486313 -1.18064e-05 4.84757 402.092 610.939 
721 0.1832 0.1832 0 -0.000781798 -0.000781798 2.96672e-05 7.79296 545.93 888.138 
761 0.1996 0.1996 0 -0.000867605 -0.000867605 -1.39806e-05 8.64829 603.108 908.983 
801 0.204 0.204 0 -0.000886745 -0.000886745 -2.33005e-05 8.83907 785.025 1159.63 
841 0.192 0.192 0 -0.000815087 -0.000815087 -1.73151e-05 8.12479 623.204 921.524 
881 0.153 0.153 0 -0.00064563 -0.00064563 1.08279e-05 6.43564 534.303 832.728 
921 0.0984 0.0984 0 -0.000385373 -0.000385373 1.19438e-06 3.8414 305.943 433.127 
961 0.001 0.001 0 1.11129e-06 1.11129e-06 1.08615e-06 28.616 7722.49 12034.2 
1001 0.8698 0.8698 0 0.000650196 0.000650196 -2.58073e-05 38.3434 4827.54 6541.36 
1041 0.9244 0.9244 0 0.000659631 0.000659631 6.71447e-05 40.6901 5000.77 6769.48 
1081 0.8912 0.8912 0 0.000646588 0.000646588 1.43354e-05 38.8265 4684.73 6430.97 
1121 0.861 0.861 0 0.000745113 0.000745113 -1.8626e-05 38.1178 5328.91 7286.61 
1161 0.796 0.796 0 0.000701356 0.000701356 1.2252e-06 35.4695 5047.35 7025.74 
1201 0.7226 0.7226 0 0.00074965 0.00074965 -9.52371e-06 32.4491 5180.38 6963.78 
1241 0.5808 0.5808 0 0.000832725 0.000832725 -4.19804e-05 24.578 4291.57 5793.95 
2 0.002 0.002 0 3.85025e-06 3.85025e-06 2.20856e-07 47.3611 6429.42 7696.35 
42 9.216 9.216 0 0.0389195 0.0389195 -2.82175e-05 387.95 29366 40886.5 
82 10.2944 10.2944 0 0.0426413 0.0426413 6.65191e-05 425.049 27431.9 38350.8 
122 10.6064 10.6064 0 0.0437944 0.0437944 3.88891e-05 436.543 25764.5 35376.8 
162 10.6856 10.6856 0 0.0440176 0.0440176 4.29305e-06 438.767 25393.7 34695.1 
202 10.5876 10.5876 0 0.0437571 0.0437571 -0.000129835 436.171 26011.1 35872.4 
242 10.272 10.272 0 0.0426089 0.0426089 -1.24337e-05 424.725 26896.4 37097.1 
282 9.5604 9.5604 0 0.0400919 0.0400919 7.29058e-05 399.636 29035.8 40396.3 
322 0.0044 0.0044 0 2.13051e-05 2.13051e-05 1.27048e-06 109.048 21876.2 36099.4 
362 0.6402 0.6402 0 0.00085522 0.00085522 4.44323e-06 28.127 4928.26 6439.63 
402 0.7428 0.7428 0 0.000760239 0.000760239 -2.48824e-05 33.0899 4985.12 6803.88 
442 0.8204 0.8204 0 0.000704442 0.000704442 4.30942e-06 36.4711 4963.83 6785.54 
482 0.8854 0.8854 0 0.000675624 0.000675624 -1.2807e-05 38.766 4893.94 6542.06 
522 0.9164 0.9164 0 0.000655303 0.000655303 4.79349e-05 39.9035 4748.57 6543.4 
562 0.9234 0.9234 0 0.000677241 0.000677241 -4.01256e-06 39.9506 4991.26 6682.16 
602 0.8528 0.8528 0 0.000729589 0.000729589 5.1961e-05 36.9233 4530.05 6187.01 
642 0.0002 0.0002 0 -4.78913e-07 -4.78913e-07 4.32944e-07 5.33873 578.212 411.014 
682 0.123 0.123 0 -0.00050588 -0.00050588 -5.17184e-06 5.0426 289.881 505.534 
722 0.1798 0.1798 0 -0.000764326 -0.000764326 8.56283e-06 7.6188 658.286 889.486 
762 0.218 0.218 0 -0.000936352 -0.000936352 -1.5202e-06 9.33356 703.207 928.538 
802 0.215 0.215 0 -0.000946536 -0.000946536 -1.46298e-06 9.43506 914.726 1266.54 
842 0.188 0.188 0 -0.000802527 -0.000802527 -1.66727e-05 7.99958 710.046 1037.62 
882 0.1588 0.1588 0 -0.000663107 -0.000663107 1.71846e-06 6.60984 404.873 659.503 
922 0.0968 0.0968 0 -0.000368604 -0.000368604 9.20135e-07 3.67424 194.414 389.892 
962 0.5838 0.5838 0 0.000941174 0.000941174 -4.8691e-05 26.8135 4755.04 6188.57 
1002 0.8956 0.8956 0 0.000656434 0.000656434 1.1091e-05 38.823 4521.25 6144.35 
1042 0.9002 0.9002 0 0.000649641 0.000649641 1.73746e-05 39.5407 4686.03 6504.06 
1082 0.9222 0.9222 0 0.000634118 0.000634118 -2.47484e-05 40.3949 4824.57 6699.24 
1122 0.88 0.88 0 0.000663777 0.000663777 -3.74222e-05 39.009 5060.2 6969.76 
1162 0.822 0.822 0 0.000679373 0.000679373 -1.97943e-05 36.5828 5123.31 7023.38 
1202 0.738 0.738 0 0.000824316 0.000824316 -5.27499e-06 32.7475 5581.83 7439.49 
1242 0.5684 0.5684 0 0.000828323 0.000828323 -2.51659e-05 24.1919 4019.69 5581.68 
3 0.0016 0.0016 0 5.59973e-06 5.59973e-06 6.28294e-07 22.9991 15096 17937.7 
43 9.2702 9.2702 0 0.0391099 0.0391099 -4.05481e-05 389.847 29861.9 41746.5 
83 10.2586 10.2586 0 0.0426159 0.0426159 -8.04011e-05 424.795 27170.4 37626 
123 10.628 10.628 0 0.0438484 0.0438484 -7.59257e-06 437.081 25345.5 35558.4 
163 10.6904 10.6904 0 0.0441448 0.0441448 -2.49359e-05 440.035 24890.4 34576.7 
203 10.7084 10.7084 0 0.0441927 0.0441927 9.90453e-05 440.512 26143.3 36281.7 
243 10.3014 10.3014 0 0.0427211 0.0427211 1.20319e-05 425.844 26268.7 36410.3 
283 9.4398 9.4398 0 0.03986 0.03986 -7.78475e-05 397.325 29797.1 41055.5 
323 0.0034 0.0034 0 1.67758e-05 1.67758e-05 1.83165e-06 88.2431 15058 16327.3 
363 0.64 0.64 0 0.000829257 0.000829257 5.72592e-05 27.8318 4728.33 6230.52 
403 0.7466 0.7466 0 0.000749931 0.000749931 -4.46229e-05 33.3097 5206.04 6932.07 
443 0.829 0.829 0 0.000754225 0.000754225 -3.39445e-05 36.9411 5247.1 6945.29 
483 0.8588 0.8588 0 0.000672381 0.000672381 3.94289e-06 38.0293 4841.89 6682.35 
523 0.924 0.924 0 0.000614385 0.000614385 -2.90199e-06 40.1381 4635.79 6469.7 
563 0.907 0.907 0 0.000609786 0.000609786 1.74411e-06 39.7209 4537.6 6327.18 
603 0.8376 0.8376 0 0.000704852 0.000704852 -4.62572e-05 36.6057 4648.67 6277.63 
643 0 0 0 0 0 0 0 0 0 
683 0.1226 0.1226 0 -0.000509359 -0.000509359 -8.59094e-06 5.07729 384.073 594.958 
723 0.1788 0.1788 0 -0.000749316 -0.000749316 -7.69428e-06 7.46918 653.298 997.455 
763 0.2014 0.2014 0 -0.000865308 -0.000865308 -4.60243e-06 8.62539 757.401 1113.5 
803 0.2166 0.2166 0 -0.000944731 -0.000944731 1.37226e-05 9.41708 815.43 1117.72 
843 0.2046 0.2046 0 -0.000880012 -0.000880012 9.37042e-06 8.77196 727.464 980.192 
883 0.1628 0.1628 0 -0.000666047 -0.000666047 8.93061e-06 6.63915 573.916 830.514 
923 0.0958 0.0958 0 -0.000383876 -0.000383876 -4.23407e-06 3.82647 225.539 347.197 
963 0.6152 0.6152 0 0.000930687 0.000930687 2.74775e-06 27.6443 4537.24 5858.73 
1003 0.867 0.867 0 0.000661422 0.000661422 2.91617e-05 37.859 4432 6082.5 
1043 0.9116 0.9116 0 0.000647998 0.000647998 -3.17404e-05 39.9059 4769.15 6614.71 
1083 0.9126 0.9126 0 0.000620952 0.000620952 4.43126e-05 40.2947 5053.54 7108.79 
1123 0.849 0.849 0 0.00065936 0.00065936 -2.9184e-05 37.4655 4885.72 6639.99 
1163 0.8134 0.8134 0 0.000719629 0.000719629 1.02949e-05 36.1889 5161.35 6823.02 
1203 0.701 0.701 0 0.000774761 0.000774761 1.79648e-05 31.2366 5038.13 6695.65 
1243 0.5512 0.5512 0 0.000762169 0.000762169 -7.21491e-06 23.2535 3795.13 5370.53 
4 0.0026 0.0026 0 7.52527e-06 7.52527e-06 2.57443e-07 55.7115 11123.2 21241.9 
44 9.3036 9.3036 0 0.039388 0.039388 0.000128292 392.62 30563 42534 
84 10.2012 10.2012 0 0.0424344 0.0424344 -0.000108816 422.986 26610.9 36837.7 
124 10.6092 10.6092 0 0.0438668 0.0438668 -3.93493e-05 437.264 26006.9 36086 
164 10.715 10.715 0 0.0443395 0.0443395 9.20154e-05 441.976 25248.6 34766.7 
204 10.611 10.611 0 0.0437761 0.0437761 0.00015549 436.36 25973.1 36151.2 
244 10.3778 10.3778 0 0.043163 0.043163 9.86919e-05 430.249 26457.4 36802.7 
284 9.4882 9.4882 0 0.0399783 0.0399783 -3.03762e-05 398.503 29046.1 40908.5 
324 0.0024 0.0024 0 9.07204e-06 9.07204e-06 -1.00068e-07 49.853 10111.6 12481.2 
364 0.6218 0.6218 0 0.000839935 0.000839935 1.94061e-05 27.4554 4960.39 6414.25 
404 0.767 0.767 0 0.000751797 0.000751797 6.76895e-06 33.9913 5550.05 7426.64 
444 0.8296 0.8296 0 0.000731928 0.000731928 5.43016e-06 36.5698 5219.75 7004.87 
484 0.8876 0.8876 0 0.000648344 0.000648344 -3.60997e-05 39.0312 4831.59 6663.99 
524 0.8964 0.8964 0 0.000581047 0.000581047 -2.97382e-05 39.0569 4666.17 6342.82 
564 0.886 0.886 0 0.000615952 0.000615952 3.72058e-06 38.1586 4796.38 6601.61 
604 0.8382 0.8382 0 0.000704776 0.000704776 2.28639e-05 36.9443 4555.84 6175.42 
644 0 0 0 0 0 0 0 0 0 
684 0.1216 0.1216 0 -0.000485411 -0.000485411 1.62657e-05 4.83858 389.356 605.015 
724 0.173 0.173 0 -0.000717713 -0.000717713 2.10731e-05 7.15416 581.649 798.631 
764 0.2146 0.2146 0 -0.000913896 -0.000913896 -2.88602e-05 9.10971 734.694 1079.69 
804 0.2124 0.2124 0 -0.000896734 -0.000896734 5.28769e-07 8.93864 705.045 999.856 
844 0.1882 0.1882 0 -0.000779009 -0.000779009 -1.78405e-05 7.76516 591.801 821.9 
884 0.1554 0.1554 0 -0.00064858 -0.00064858 -1.79355e-05 6.46504 452.331 663.238 
924 0.0896 0.0896 0 -0.000344274 -0.000344274 1.43994e-05 3.43172 240.445 441.559 
964 0.609 0.609 0 0.000883239 0.000883239 1.37072e-05 27.4389 4807.95 6109.09 
1004 0.8622 0.8622 0 0.000659282 0.000659282 -3.069e-05 37.1217 4385.85 6031.23 
1044 0.9072 0.9072 0 0.000727346 0.000727346 -3.66932e-05 39.291 4710.28 6299.75 
1084 0.8986 0.8986 0 0.000640778 0.000640778 -2.74652e-05 39.6186 4597.86 6497.39 
1124 0.859 0.859 0 0.000712378 0.000712378 4.70071e-05 37.5472 4986.85 6738.35 
1164 0.803 0.803 0 0.000750589 0.000750589 1.68522e-05 36.2263 5651.91 7304.85 
1204 0.7218 0.7218 0 0.000818955 0.000818955 2.87998e-05 31.997 5052.79 6911.67 
1244 0.5618 0.5618 0 0.000897513 0.000897513 -2.58146e-05 23.6617 4087.33 5573.8 
5 0.0014 0.0014 0 3.68192e-06 3.68192e-06 1.81446e-06 32.6622 6252.07 7687.19 
45 9.2434 9.2434 0 0.0390052 0.0390052 7.77883e-05 388.804 29806.3 41321.3 
85 10.2956 10.2956 0 0.0427226 0.0427226 -7.92665e-05 425.858 27391.2 38035.9 
125 10.6292 10.6292 0 0.0439296 0.0439296 2.63635e-07 437.89 25310.4 35188.3 
165 10.7986 10.7986 0 0.0444923 0.0444923 1.89043e-06 443.499 24794 34352.7 
205 10.5146 10.5146 0 0.0436304 0.0436304 2.64153e-06 434.908 26304.2 36072.2 
245 10.3462 10.3462 0 0.0428352 0.0428352 -9.64446e-05 426.981 26667 37149 
285 9.4448 9.4448 0 0.0396885 0.0396885 4.14113e-05 395.615 29445.4 40772.8 
325 0.0036 0.0036 0 1.43035e-05 1.43035e-05 1.45187e-06 84.8936 8681.46 13158.8 
365 0.644 0.644 0 0.000793101 0.000793101 -1.24104e-06 27.9762 4794.26 6458.86 
405 0.7622 0.7622 0 0.000802061 0.000802061 3.53208e-05 34.0343 5714.76 7556.08 
445 0.8258 0.8258 0 0.000707836 0.000707836 2.6467e-06 36.3158 4856.05 6765.81 
485 0.8688 0.8688 0 0.000694429 0.000694429 -1.42209e-05 38.4323 5009.82 6641.42 
525 0.9 0.9 0 0.000659059 0.000659059 -8.3076e-05 39.2561 4757.2 6461.87 
565 0.9168 0.9168 0 0.000606252 0.000606252 4.70507e-05 39.9606 4714.05 6432.29 
605 0.8152 0.8152 0 0.000681574 0.000681574 -3.95378e-06 35.9805 4658.66 6237.3 
645 0 0 0 0 0 0 0 0 0 
685 0.1234 0.1234 0 -0.000497425 -0.000497425 8.74687e-06 4.95833 389.097 557.33 
725 0.1884 0.1884 0 -0.000763288 -0.000763288 8.32818e-06 7.60845 584.091 854.845 
765 0.2106 0.2106 0 -0.000924095 -0.000924095 -5.79954e-06 9.21137 646.248 961.117 
805 0.2124 0.2124 0 -0.000919751 -0.000919751 -6.81542e-06 9.16808 740.348 1156.74 
845 0.196 0.196 0 -0.000835769 -0.000835769 -4.71027e-06 8.33094 596.539 919.871 
885 0.1512 0.1512 0 -0.000630691 -0.000630691 1.29466e-05 6.28673 622.108 957.971 
925 0.0866 0.0866 0 -0.00033257 -0.00033257 -1.5713e-05 3.31506 292.754 433.684 
965 0.6308 0.6308 0 0.000907827 0.000907827 5.28947e-05 28.407 4634.44 6048.76 
1005 0.8856 0.8856 0 0.000680862 0.000680862 -1.19596e-05 38.4904 4628.48 6316.74 
1045 0.9176 0.9176 0 0.000636603 0.000636603 -2.03339e-06 39.9818 4838.65 6685.23 
1085 0.9196 0.9196 0 0.000610942 0.000610942 -4.17919e-05 40.2773 5250.5 7112.76 
1125 0.8606 0.8606 0 0.000661305 0.000661305 1.21375e-05 37.8812 5213.79 7082.85 
1165 0.8018 0.8018 0 0.000743793 0.000743793 -1.79206e-05 35.3643 5108.29 6920.96 
1205 0.7168 0.7168 0 0.000815858 0.000815858 1.0638e-06 32.0766 5299.17 7022.35 
1245 0.5486 0.5486 0 0.00084686 0.00084686 2.77642e-05 22.8606 4148.98 5582.74 
6 0.0028 0.0028 0 1.1214e-05 1.1214e-05 -1.83313e-06 58.6085 19444.7 29806.4 
46 9.3912 9.3912 0 0.0396319 0.0396319 -6.71649e-05 395.051 30251.9 41907 
86 10.2724 10.2724 0 0.0426172 0.0426172 -3.30294e-05 424.808 26665.1 37612.4 
126 10.7054 10.7054 0 0.0441333 0.0441333 5.88107e-05 439.92 25722.3 35511 
166 10.7336 10.7336 0 0.04413 0.04413 -0.000111807 439.887 25718.6 34631.7 
206 10.7276 10.7276 0 0.0444799 0.0444799 4.67119e-06 443.375 25702.9 35545.4 
246 10.2606 10.2606 0 0.0427054 0.0427054 -4.15875e-05 425.687 27377.5 37417.5 
286 9.3606 9.3606 0 0.0394697 0.0394697 -0.000101952 393.433 30249.5 41490.6 
326 0.0038 0.0038 0 1.47557e-05 1.47557e-05 -1.09114e-06 85.1311 9866.2 29364.9 
366 0.6306 0.6306 0 0.000824961 0.000824961 1.6427e-05 27.3545 4830.83 6277.86 
406 0.7606 0.7606 0 0.000770348 0.000770348 -1.01521e-05 33.891 5235.01 6991.82 
446 0.8516 0.8516 0 0.000710375 0.000710375 6.455e-06 37.9101 5173.13 6837.88 
486 0.884 0.884 0 0.000686316 0.000686316 3.80317e-05 38.9317 5044.27 6908.37 
526 0.9092 0.9092 0 0.000665134 0.000665134 4.65658e-06 40.2284 4891.86 6832.62 
566 0.8886 0.8886 0 0.000628457 0.000628457 -3.05379e-07 38.3917 4571.11 6385.24 
606 0.7996 0.7996 0 0.000673262 0.000673262 1.56439e-05 34.6699 4225.2 5696.08 
646 0 0 0 0 0 0 0 0 0 
686 0.1162 0.1162 0 -0.000472667 -0.000472667 2.63746e-06 4.71154 469.129 677.762 
726 0.1728 0.1728 0 -0.000721433 -0.000721433 -5.53075e-06 7.19124 464.402 730.253 
766 0.2166 0.2166 0 -0.000927024 -0.000927024 2.78425e-06 9.24057 837.79 1198.3 
806 0.2158 0.2158 0 -0.000915857 -0.000915857 -1.27239e-05 9.12925 805.316 1216.6 
846 0.2062 0.2062 0 -0.000879511 -0.000879511 -3.94679e-06 8.76696 701.892 942.588 
886 0.1524 0.1524 0 -0.000635327 -0.000635327 -3.61857e-05 6.33294 478.675 752.262 
926 0.0826 0.0826 0 -0.00031813 -0.00031813 8.9793e-06 3.17112 219.222 336.469 
966 0.6618 0.6618 0 0.000866417 0.000866417 1.92544e-05 29.5684 4579.14 5906.73 
1006 0.8932 0.8932 0 0.000677839 0.000677839 -2.00342e-05 39.3033 4457.27 6083.24 
1046 0.9154 0.9154 0 0.000628026 0.000628026 2.17856e-05 40.4105 4649.87 6452.73 
1086 0.8888 0.8888 0 0.000672345 0.000672345 1.5034e-05 38.5549 4803.49 6680.34 
1126 0.859 0.859 0 0.0007308 0.0007308 -3.08459e-05 38.4716 5484.13 7325.79 
1166 0.7996 0.7996 0 0.000766791 0.000766791 -6.1922e-05 35.347 5371.63 7175.26 
1206 0.6926 0.6926 0 0.000770786 0.000770786 1.17713e-05 30.8326 5124.09 6594.73 
1246 0.5572 0.5572 0 0.000847626 0.000847626 -2.64396e-05 23.7636 4333.25 5947.72 
7 0.004 0.004 0 1.29969e-05 1.29969e-05 6.79586e-07 73.8949 17426.7 21820.6 
47 9.3634 9.3634 0 0.0395317 0.0395317 8.29269e-05 394.051 29944.5 41302.4 
87 10.2248 10.2248 0 0.0426256 0.0426256 -4.5408e-05 424.892 27008.6 37420.2 
127 10.6626 10.6626 0 0.0440411 0.0440411 4.29264e-05 439.001 25452.8 35120.3 
167 10.7818 10.7818 0 0.0444248 0.0444248 -4.63902e-05 442.826 25961.8 36207.8 
207 10.6064 10.6064 0 0.0438903 0.0438903 -1.4943e-05 437.498 25848.9 35794.1 
247 10.2274 10.2274 0 0.0425252 0.0425252 -2.30826e-05 423.891 27369.1 37935.6 
287 9.2542 9.2542 0 0.0389292 0.0389292 8.31316e-05 388.046 29028.3 40147.2 
327 0.0018 0.0018 0 4.26038e-06 4.26038e-06 -1.94819e-06 30.8627 1866.91 3136.24 
367 0.6656 0.6656 0 0.000864791 0.000864791 2.05463e-05 29.0274 4740.64 6386.78 
407 0.7674 0.7674 0 0.000753767 0.000753767 2.41854e-05 34.3719 5176.79 6900.01 
447 0.8282 0.8282 0 0.000746286 0.000746286 -2.71757e-05 36.5579 5230.95 6917.62 
487 0.8534 0.8534 0 0.000649533 0.000649533 6.57201e-05 37.6635 4915.38 6754.64 
527 0.9164 0.9164 0 0.000679374 0.000679374 -2.51854e-05 40.0065 4792.3 6524.34 
567 0.8972 0.8972 0 0.000633757 0.000633757 -1.05325e-06 39.2965 4564.58 6385.85 
607 0.819 0.819 0 0.000746569 0.000746569 -1.87934e-05 35.962 4571.84 6228.32 
647 0.0546 0.0546 0 -0.000177451 -0.000177451 5.25688e-06 1.76883 129.789 229.349 
687 0.118 0.118 0 -0.000476419 -0.000476419 2.61516e-05 4.74895 415.42 598.769 
727 0.1744 0.1744 0 -0.000752379 -0.000752379 -5.59442e-06 7.49971 659.686 967.513 
767 0.2204 0.2204 0 -0.000943102 -0.000943102 -1.66743e-06 9.40084 567.83 896.396 
807 0.212 0.212 0 -0.000916225 -0.000916225 -1.38071e-05 9.13293 707.861 1039.03 
847 0.1968 0.1968 0 -0.000841873 -0.000841873 2.05972e-05 8.39178 748.399 1052.12 
887 0.159 0.159 0 -0.000676393 -0.000676393 9.72e-07 6.74228 407.662 654.449 
927 0.0842 0.0842 0 -0.000325459 -0.000325459 1.56963e-05 3.24417 224.889 391.855 
967 0.688 0.688 0 0.000841027 0.000841027 -1.35759e-06 30.5985 4368.9 5694.53 
1007 0.8938 0.8938 0 0.000632984 0.000632984 1.25337e-05 39.0778 4574.28 6494.12 
1047 0.9258 0.9258 0 0.00068374 0.00068374 -2.9819e-05 40.5691 4920.48 6897.91 
1087 0.886 0.886 0 0.000660207 0.000660207 -6.62663e-06 39.0193 4773.4 6384.12 
1127 0.8736 0.8736 0 0.000742792 0.000742792 1.2345e-05 38.6084 5344.05 7125.23 
1167 0.796 0.796 0 0.000726114 0.000726114 8.78031e-07 35.4427 5376.81 7176.91 
1207 0.738 0.738 0 0.000872439 0.000872439 -4.64471e-05 32.9521 5382.94 7133.13 
1247 0.5432 0.5432 0 0.000910362 0.000910362 -2.12025e-05 22.747 4289.41 5696.07 
8 0.0044 0.0044 0 1.78134e-05 1.78134e-05 -4.06576e-07 92.9535 13150.9 19581 
48 9.4634 9.4634 0 0.0398677 0.0398677 8.97561e-05 397.401 29893.1 41286.4 
88 10.2618 10.2618 0 0.042718 0.042718 0.000156822 425.813 26814 37825.9 
128 10.6788 10.6788 0 0.0441186 0.0441186 -0.000100971 439.775 25296.8 35213.8 
168 10.7344 10.7344 0 0.044145 0.044145 2.82516e-05 440.037 24686.9 34299.2 
208 10.6266 10.6266 0 0.0438631 0.0438631 0.000147786 437.228 25980.8 35644.2 
248 10.1796 10.1796 0 0.0423306 0.0423306 2.66507e-05 421.951 26968.6 37646 
288 9.3372 9.3372 0 0.039377 0.039377 -2.33486e-05 392.51 30183 41406.7 
328 0.0026 0.0026 0 6.60502e-06 6.60502e-06 -2.6589e-06 44.3653 6139.47 10733.8 
368 0.6602 0.6602 0 0.000843359 0.000843359 3.53755e-05 28.9887 4808.37 6437.53 
408 0.7828 0.7828 0 0.000786635 0.000786635 3.87015e-05 34.7815 5475.78 7303.42 
448 0.84 0.84 0 0.000785681 0.000785681 -4.09228e-06 37.8689 5335.47 7183 
488 0.9066 0.9066 0 0.000739433 0.000739433 -3.00671e-05 40.0528 5169.74 7043.73 
528 0.917 0.917 0 0.000635335 0.000635335 -7.2898e-07 40.3678 4943.73 6842.91 
568 0.905 0.905 0 0.00063943 0.00063943 2.70169e-05 39.6888 5008.38 6704.58 
608 0.8098 0.8098 0 0.000704882 0.000704882 1.47476e-05 35.7982 4584.74 6016.15 
648 0.0498 0.0498 0 -0.000175186 -0.000175186 7.99486e-06 1.74626 104.084 236.515 
688 0.1296 0.1296 0 -0.000516467 -0.000516467 -1.53621e-05 5.14814 350.349 565.438 
728 0.1748 0.1748 0 -0.000717082 -0.000717082 -2.34645e-06 7.14787 492.236 686.101 
768 0.2106 0.2106 0 -0.000884761 -0.000884761 1.45247e-05 8.81929 582.995 893.422 
808 0.2182 0.2182 0 -0.000916153 -0.000916153 1.66245e-05 9.13221 801.184 1064.92 
848 0.1918 0.1918 0 -0.000836669 -0.000836669 1.0193e-05 8.33991 716.013 1050 
888 0.1542 0.1542 0 -0.000654035 -0.000654035 1.32939e-05 6.51942 510.791 744.428 
928 0.0832 0.0832 0 -0.000324601 -0.000324601 -9.89295e-06 3.23562 208.244 370.446 
968 0.674 0.674 0 0.000824504 0.000824504 -1.16788e-05 29.853 4221.4 5567.69 
1008 0.8656 0.8656 0 0.000653837 0.000653837 -1.56022e-05 37.909 4574.64 6358.63 
1048 0.901 0.901 0 0.000588844 0.000588844 1.77852e-05 39.5891 4796.96 6715.87 
1088 0.8904 0.8904 0 0.000574583 0.000574583 -5.04908e-06 39.2551 5009.5 6768.69 
1128 0.859 0.859 0 0.000667953 0.000667953 5.44372e-05 38.0909 5050.97 7017.33 
1168 0.8016 0.8016 0 0.000750095 0.000750095 2.83119e-05 35.5242 5329.78 7230.95 
1208 0.727 0.727 0 0.000834414 0.000834414 4.17667e-05 31.6901 4897.28 6635.88 
1248 0.5498 0.5498 0 0.000864087 0.000864087 1.41283e-05 23.2255 3999.54 5449.16 
9 0.004 0.004 0 1.7886e-05 1.7886e-05 -1.85233e-06 73.9382 24489.8 30422.8 
49 9.4954 9.4954 0 0.0400185 0.0400185 1.58801e-05 398.904 29140.2 40769.2 
89 10.3352 10.3352 0 0.0428865 0.0428865 -6.04749e-05 427.492 27078 37622.2 
129 10.6712 10.6712 0 0.0441265 0.0441265 -1.17245e-05 439.852 25484.1 35088.7 
169 10.7826 10.7826 0 0.0444825 0.0444825 6.81399e-05 443.402 25543.4 35022.5 
209 10.6732 10.6732 0 0.0440228 0.0440228 -4.66849e-05 438.819 26069.3 36061.5 
249 10.2524 10.2524 0 0.0427003 0.0427003 3.05249e-06 425.636 27061.8 37700.7 
289 9.2226 9.2226 0 0.039039 0.039039 -3.80211e-05 389.141 30628.1 41450.9 
329 0.0018 0.0018 0 6.03242e-06 6.03242e-06 9.08535e-07 34.5149 12040.5 21272.2 
369 0.6488 0.6488 0 0.000859617 0.000859617 -3.16007e-05 28.32 4995.88 6695.99 
409 0.7406 0.7406 0 0.000708876 0.000708876 1.30255e-05 33.2587 4991.32 6679.08 
449 0.8234 0.8234 0 0.000724826 0.000724826 6.18914e-05 36.5099 4995.44 6701.42 
489 0.9024 0.9024 0 0.000664875 0.000664875 4.16758e-06 39.9959 5173.03 7074.68 
529 0.9236 0.9236 0 0.000693914 0.000693914 -4.82855e-05 40.6516 5337.86 7130.1 
569 0.9126 0.9126 0 0.000610595 0.000610595 -4.96452e-05 39.8714 4760.14 6575.17 
609 0.7962 0.7962 0 0.00073295 0.00073295 1.13479e-05 34.7039 4716.02 6148.9 
649 0.0576 0.0576 0 -0.000203691 -0.000203691 -7.90941e-06 2.03039 89.0017 197.419 
689 0.1366 0.1366 0 -0.000567806 -0.000567806 -1.52062e-05 5.65989 469.091 718.013 
729 0.1834 0.1834 0 -0.000768946 -0.000768946 -2.52847e-05 7.66485 546.528 783.241 
769 0.211 0.211 0 -0.000888139 -0.000888139 -9.26423e-06 8.85296 669.141 913.995 
809 0.222 0.222 0 -0.00097587 -0.00097587 1.69804e-06 9.72747 769.303 1226.2 
849 0.1988 0.1988 0 -0.000836365 -0.000836365 8.57393e-07 8.33689 709.467 996.507 
889 0.1554 0.1554 0 -0.000654275 -0.000654275 1.99e-05 6.52181 520.525 801.521 
929 0.0832 0.0832 0 -0.000315272 -0.000315272 -8.27671e-06 3.14263 302.837 464.887 
969 0.676 0.676 0 0.000771176 0.000771176 -1.65532e-06 29.9299 4481.23 5955.89 
1009 0.8856 0.8856 0 0.000676689 0.000676689 -4.161e-05 38.4191 4672.31 6707.67 
1049 0.9092 0.9092 0 0.000630899 0.000630899 2.50871e-05 39.625 4923.33 6374.89 
1089 0.8902 0.8902 0 0.00061825 0.00061825 2.07372e-05 39.078 5095.28 7010.03 
1129 0.8534 0.8534 0 0.000665782 0.000665782 -4.81788e-05 37.5075 4686.79 6477.82 
1169 0.7974 0.7974 0 0.000720681 0.000720681 5.93133e-06 35.6527 5019.07 6825.26 
1209 0.7146 0.7146 0 0.000850906 0.000850906 -1.17442e-05 31.8753 5382.96 7134.08 
1249 0.5408 0.5408 0 0.000872067 0.000872067 1.20008e-05 22.4572 3662.96 5142.96 
10 0.0046 0.0046 0 2.0436e-05 2.0436e-05 2.79795e-06 95.2568 17470.6 36927.6 
50 9.5444 9.5444 0 0.0401706 0.0401706 -7.93211e-05 400.421 29379.5 41098 
90 10.3848 10.3848 0 0.0432261 0.0432261 2.72904e-05 430.878 26640.2 36651 
130 10.6602 10.6602 0 0.0440253 0.0440253 6.78612e-05 438.844 25348.5 35205.2 
170 10.6906 10.6906 0 0.0438269 0.0438269 1.6887e-05 436.866 24899.9 34448.8 
210 10.5934 10.5934 0 0.0437582 0.0437582 -2.029e-05 436.182 25443.1 34925.5 
250 10.2362 10.2362 0 0.0426813 0.0426813 0.00013548 425.447 27340.9 38080.1 
290 9.084 9.084 0 0.0385761 0.0385761 0.000101514 384.526 30071.8 41577.1 
330 0.0014 0.0014 0 3.33968e-06 3.33968e-06 7.48956e-07 22.9865 7904.11 5944 
370 0.6706 0.6706 0 0.000836924 0.000836924 -3.42834e-05 29.6056 5058.4 6686.67 
410 0.7914 0.7914 0 0.000765531 0.000765531 1.15319e-05 35.011 5336.57 7031.13 
450 0.84 0.84 0 0.000669378 0.000669378 2.93749e-05 37.2571 4950.02 6872.98 
490 0.9228 0.9228 0 0.000679274 0.000679274 -1.89134e-05 40.4892 5417.83 7119.8 
530 0.9106 0.9106 0 0.00059652 0.00059652 4.86236e-05 39.942 4734.42 6557.77 
570 0.9142 0.9142 0 0.000645948 0.000645948 -4.54697e-05 39.8393 4834.88 6600.96 
610 0.8222 0.8222 0 0.000724952 0.000724952 4.07288e-05 35.9772 4494.77 6140.28 
650 0.054 0.054 0 -0.000186355 -0.000186355 2.37369e-06 1.85759 126.866 249.021 
690 0.1232 0.1232 0 -0.000513537 -0.000513537 3.74211e-06 5.11893 366.563 600.285 
730 0.1934 0.1934 0 -0.000819473 -0.000819473 -2.52601e-06 8.16851 666.094 967.849 
770 0.2054 0.2054 0 -0.00088191 -0.00088191 1.01103e-05 8.79087 626.251 982.374 
810 0.2184 0.2184 0 -0.000946061 -0.000946061 1.70145e-05 9.43033 804.551 1100.93 
850 0.1908 0.1908 0 -0.000812897 -0.000812897 -4.03797e-05 8.10295 706.654 1047.48 
890 0.1428 0.1428 0 -0.000608216 -0.000608216 1.30231e-05 6.06269 559.102 716.543 
930 0.0762 0.0762 0 -0.000296003 -0.000296003 -1.70125e-06 2.95056 221.749 334.867 
970 0.6996 0.6996 0 0.000808147 0.000808147 1.85443e-05 30.57 4286.63 5543.08 
1010 0.8938 0.8938 0 0.00066775 0.00066775 -3.33252e-05 38.8678 4588.68 6318.42 
1050 0.9216 0.9216 0 0.000661796 0.000661796 -2.04591e-05 40.3406 4498.59 6252.27 
1090 0.8908 0.8908 0 0.000580167 0.000580167 -2.01658e-06 39.3318 5315.27 7212.34 
1130 0.851 0.851 0 0.000655554 0.000655554 1.49571e-05 37.3815 4957.07 6718.34 
1170 0.7876 0.7876 0 0.000699168 0.000699168 1.95573e-05 35.2407 5118.99 6919.74 
1210 0.7132 0.7132 0 0.00082047 0.00082047 1.89464e-05 31.8756 5293.36 7028.43 
1250 0.5396 0.5396 0 0.000855884 0.000855884 3.78327e-05 22.1582 3974.78 5406.86 
11 0.005 0.005 0 2.02677e-05 2.02677e-05 1.31481e-06 100.137 10481.1 24260.5 
51 9.5626 9.5626 0 0.0401908 0.0401908 0.000100632 400.622 29564 40653.4 
91 10.3472 10.3472 0 0.0428954 0.0428954 0.000124699 427.581 26441.1 36557.9 
131 10.5916 10.5916 0 0.0438277 0.0438277 -8.63039e-05 436.874 25070.6 34927.8 
171 10.7092 10.7092 0 0.0439901 0.0439901 -5.64847e-05 438.493 25389.7 35649.6 
211 10.6382 10.6382 0 0.0439048 0.0439048 0.000113802 437.643 25486.7 35546.8 
251 10.2038 10.2038 0 0.0424834 0.0424834 -0.000150326 423.474 27086.3 37780.1 
291 9.1638 9.1638 0 0.0387208 0.0387208 4.78424e-05 385.969 30801.6 43101.9 
331 0.0012 0.0012 0 3.07412e-06 3.07412e-06 6.13333e-07 13.8779 3694.48 4924.28 
371 0.669 0.669 0 0.000788573 0.000788573 -3.4928e-06 29.8288 4945.54 6445.46 
411 0.7622 0.7622 0 0.000700732 0.000700732 1.89663e-05 33.5074 5062.54 6647.4 
451 0.8378 0.8378 0 0.000740251 0.000740251 1.37003e-05 37.5607 5320.24 7108.99 
491 0.9072 0.9072 0 0.000709893 0.000709893 -1.27238e-05 39.5128 5184.73 7081.64 
531 0.9108 0.9108 0 0.000664814 0.000664814 -1.07365e-05 39.8215 4942.81 6543.42 
571 0.8746 0.8746 0 0.000602799 0.000602799 -8.81713e-06 38.3888 4586.64 6295.54 
611 0.7974 0.7974 0 0.000768818 0.000768818 1.67403e-06 34.3088 4375.97 6060.53 
651 0.0598 0.0598 0 -0.000218386 -0.000218386 1.9698e-06 2.17687 150.843 220.559 
691 0.139 0.139 0 -0.000572572 -0.000572572 5.1581e-06 5.7074 326.909 576.574 
731 0.1908 0.1908 0 -0.000827785 -0.000827785 -6.98145e-06 8.25135 719.687 1050.76 
771 0.211 0.211 0 -0.000921218 -0.000921218 -9.18141e-06 9.1827 657.304 928.753 
811 0.2272 0.2272 0 -0.000985783 -0.000985783 3.27009e-06 9.82628 630.677 997.422 
851 0.1904 0.1904 0 -0.00082095 -0.00082095 1.69539e-05 8.18322 668.104 1047.28 
891 0.142 0.142 0 -0.000583764 -0.000583764 1.53933e-05 5.81895 612.365 791.511 
931 0.0812 0.0812 0 -0.000318087 -0.000318087 3.2505e-06 3.17069 243.691 395.126 
971 0.7066 0.7066 0 0.000739477 0.000739477 -6.72677e-06 30.8922 4308.83 5560.31 
1011 0.8868 0.8868 0 0.000619699 0.000619699 3.75251e-06 38.6029 4550.45 6362.69 
1051 0.8922 0.8922 0 0.000671816 0.000671816 -8.01901e-06 39.2766 5184.08 6857.46 
1091 0.894 0.894 0 0.000709566 0.000709566 -3.85379e-05 39.5788 5063.38 7022.55 
1131 0.8356 0.8356 0 0.000634427 0.000634427 1.55541e-06 37.3313 4945.65 6828.07 
1171 0.8002 0.8002 0 0.000795152 0.000795152 1.76033e-05 35.7501 5468.64 7439.2 
1211 0.6958 0.6958 0 0.000807367 0.000807367 7.41279e-06 30.754 5217.13 6891.02 
1251 0.5362 0.5362 0 0.000867472 0.000867472 2.57094e-05 21.8147 3500.24 4981.7 
12 0.0068 0.0068 0 3.19102e-05 3.19102e-05 -3.11517e-07 152.69 19994 38734.8 
52 9.6676 9.6676 0 0.0405312 0.0405312 0.000146173 404.015 29506.3 40613.2 
92 10.4628 10.4628 0 0.0433155 0.0433155 -4.3219e-06 431.769 26701.1 37270.3 
132 10.6966 10.6966 0 0.0440105 0.0440105 -0.000101109 438.697 25732.3 34894.6 
172 10.781 10.781 0 0.0442903 0.0442903 -0.000126624 441.486 25083.2 34725.4 
212 10.5454 10.5454 0 0.0435785 0.0435785 4.95664e-05 434.39 25109.4 34884.3 
252 10.2316 10.2316 0 0.0426682 0.0426682 -3.88189e-05 425.316 27035.1 37990.7 
292 8.9858 8.9858 0 0.0381907 0.0381907 -8.08167e-05 380.685 29837 40981.3 
332 0.5142 0.5142 0 0.000837542 0.000837542 2.39805e-06 19.2852 2750.51 4286.06 
372 0.6614 0.6614 0 0.000801337 0.000801337 -1.46294e-05 29.2878 5015.5 6639.45 
412 0.787 0.787 0 0.000744436 0.000744436 -1.79989e-05 35.1511 4943.47 6618.99 
452 0.8474 0.8474 0 0.000632876 0.000632876 1.2887e-05 37.795 5180.2 7022.56 
492 0.8962 0.8962 0 0.000638769 0.000638769 3.39334e-05 39.693 5067.75 6944.79 
532 0.9002 0.9002 0 0.000612278 0.000612278 2.72716e-08 39.6678 4615.68 6663.14 
572 0.919 0.919 0 0.000625488 0.000625488 -8.18253e-06 39.9591 4520.64 6207.44 
612 0.7748 0.7748 0 0.000724538 0.000724538 3.18505e-05 33.9751 4377.22 5939.85 
652 0.0634 0.0634 0 -0.000234714 -0.000234714 -1.24506e-06 2.33963 182.16 359.234 
692 0.136 0.136 0 -0.000555488 -0.000555488 -2.08255e-05 5.5371 414.381 649.473 
732 0.1824 0.1824 0 -0.000780809 -0.000780809 1.96041e-05 7.7831 721.544 1047.19 
772 0.2122 0.2122 0 -0.000912885 -0.000912885 1.20202e-05 9.09963 777.875 1042.56 
812 0.2128 0.2128 0 -0.000918015 -0.000918015 5.2832e-06 9.15077 705.158 1046.54 
852 0.1918 0.1918 0 -0.000817501 -0.000817501 2.47075e-06 8.14885 546.676 831.648 