ITEM: TIMESTEP
25000
ITEM: NUMBER OF SURFS
1260
ITEM: BOX BOUNDS oo rr pp
0 0.3
0 0.3
-0.5 0.5
ITEM: SURFS id f_4[1] f_4[2] f_4[3] f_4[4] f_4[5] f_4[6] f_4[7] f_4[8] f_4[9] 
1 0.0206 0.0206 0 0.000376086 0.000376086 -4.14793e-05 150.173 8399.3 13411.7 
41 9.4912 9.4912 0 0.387421 0.387421 -0.000174835 3874.21 217439 309842 
81 10.4516 10.4516 0 0.424926 0.424926 -0.000179217 4249.26 188519 278726 
121 10.8062 10.8062 0 0.436151 0.436151 -0.000269944 4361.51 181989 265674 
161 11.0816 11.0816 0 0.446267 0.446267 -0.000141921 4462.67 175613 259564 
201 10.963 10.963 0 0.442168 0.442168 -0.000364228 4421.68 192027 271459 
241 10.6082 10.6082 0 0.428856 0.428856 -0.000296939 4288.56 200837 281510 
281 9.8636 9.8636 0 0.402266 0.402266 0.000589996 4022.66 205194 297763 
321 0.1596 0.1596 0 0.00643775 0.00643775 -9.64371e-05 1279.18 121769 156152 
361 0.4318 0.4318 0 0.0030458 0.0030458 0.000253611 172.636 8388.17 11214.2 
401 0.5742 0.5742 0 0.00186696 0.00186696 4.06905e-05 231.977 8823 11836.3 
441 0.7046 0.7046 0 0.00168162 0.00168162 0.000281538 281.704 7399.24 11026 
481 0.7916 0.7916 0 0.0021018 0.0021018 -0.000418302 313.609 10508.7 15472.8 
521 0.8624 0.8624 0 0.00153959 0.00153959 0.000154307 343.501 8556.43 13915.3 
561 0.9066 0.9066 0 0.00172542 0.00172542 0.000450912 358.824 12330.4 15947.3 
601 0.8592 0.8592 0 0.002422 0.002422 0.000199971 335.983 11957 15875.4 
641 0.0038 0.0038 0 -0.000103258 -0.000103258 4.67946e-05 27.9427 -1631.38 -1152.3 
681 0.229 0.229 0 -0.00917644 -0.00917644 -0.000229341 91.7644 1564.71 1962.31 
721 0.2148 0.2148 0 -0.00855319 -0.00855319 -0.000202617 85.5319 2332.36 3083.95 
761 0.2486 0.2486 0 -0.00992701 -0.00992701 -0.000125342 99.2701 3639.22 5483.79 
801 0.2474 0.2474 0 -0.0100161 -0.0100161 7.39379e-05 100.161 4019.67 5223.24 
841 0.2248 0.2248 0 -0.00888371 -0.00888371 0.000150082 88.8371 2855.57 4062.38 
881 0.2258 0.2258 0 -0.0087515 -0.0087515 0.000214632 87.515 1852.18 2429.64 
921 0.226 0.226 0 -0.00884971 -0.00884971 0.000258731 88.4971 886.37 1763.36 
961 0.025 0.025 0 0.000272921 0.000272921 -5.89504e-05 191.908 12397.7 7696.35 
1001 0.8704 0.8704 0 0.00230231 0.00230231 -4.83804e-05 349.062 11045.6 14893.3 
1041 0.9022 0.9022 0 0.00200445 0.00200445 3.26163e-05 352.676 12466.5 17593.9 
1081 0.8466 0.8466 0 0.00200425 0.00200425 -0.000522369 337.46 10338.5 14566.6 
1121 0.7708 0.7708 0 0.00175093 0.00175093 -0.000118141 309.454 9630.14 13415.9 
1161 0.6738 0.6738 0 0.00215125 0.00215125 -0.000201145 271.205 9573.64 12674.7 
1201 0.5462 0.5462 0 0.00231881 0.00231881 0.000292717 218.685 8243.94 11058.8 
1241 0.4092 0.4092 0 0.00350128 0.00350128 -2.6513e-05 166.193 11866.9 14157.6 
2 0.025 0.025 0 0.000555524 0.000555524 -3.08198e-05 187.271 26053.9 30811.7 
42 9.592 9.592 0 0.392053 0.392053 0.000108995 3920.53 213999 310505 
82 10.5326 10.5326 0 0.428098 0.428098 -0.00125602 4280.98 203791 294705 
122 10.784 10.784 0 0.434762 0.434762 5.62686e-05 4347.62 178100 262941 
162 10.9038 10.9038 0 0.439224 0.439224 0.000153141 4392.24 173548 256376 
202 10.8278 10.8278 0 0.435393 0.435393 0.000300235 4353.93 180990 263590 
242 10.5354 10.5354 0 0.425144 0.425144 0.000930882 4251.44 192846 282709 
282 9.7732 9.7732 0 0.398757 0.398757 -0.000672237 3987.57 207013 295903 
322 0.1284 0.1284 0 0.0050376 0.0050376 -0.000105288 1032.01 75951 104433 
362 0.443 0.443 0 0.00308327 0.00308327 -0.000347159 178.665 9197.8 12153.7 
402 0.569 0.569 0 0.00198892 0.00198892 5.57965e-05 228.062 7854.39 11692.5 
442 0.7204 0.7204 0 0.00203404 0.00203404 -0.000234219 286.102 8462.4 12954.1 
482 0.8192 0.8192 0 0.00196699 0.00196699 0.000116598 322.461 11199.2 15301.9 
522 0.8602 0.8602 0 0.00188493 0.00188493 9.18362e-05 341.461 10923.4 15459.2 
562 0.8748 0.8748 0 0.00178153 0.00178153 -0.00029809 347.999 10939.2 14430.3 
602 0.8474 0.8474 0 0.00252258 0.00252258 -4.89257e-05 334.791 11376.9 16203.4 
642 0.0034 0.0034 0 -0.000100156 -0.000100156 -1.59002e-05 24.6629 -661.562 -89.8917 
682 0.2188 0.2188 0 -0.00857121 -0.00857121 -0.000124437 85.7121 844.885 2090.77 
722 0.218 0.218 0 -0.00854112 -0.00854112 -4.75379e-05 85.4112 1320.16 1899.3 
762 0.2384 0.2384 0 -0.00958116 -0.00958116 -8.24863e-05 95.8116 3727.08 4872.64 
802 0.2434 0.2434 0 -0.00992737 -0.00992737 0.00011835 99.2737 4476.27 5763.86 
842 0.233 0.233 0 -0.00924573 -0.00924573 -7.34214e-05 92.4573 3179.11 4238.43 
882 0.222 0.222 0 -0.00858913 -0.00858913 0.000106886 85.8913 2149.37 3185.88 
922 0.2266 0.2266 0 -0.00891977 -0.00891977 6.0843e-05 89.1977 1438.17 2319.57 
962 0.5284 0.5284 0 0.00504116 0.00504116 -0.000131366 211.659 11719.2 15227.8 
1002 0.8926 0.8926 0 0.00220425 0.00220425 -0.000371492 353.545 12621 17315.5 
1042 0.8894 0.8894 0 0.00192444 0.00192444 0.00014533 353.187 10871.5 13656.2 
1082 0.8844 0.8844 0 0.00214952 0.00214952 -6.72674e-05 351.729 11415.6 18011.9 
1122 0.7606 0.7606 0 0.00161036 0.00161036 1.35389e-05 302.878 10308.9 13584.4 
1162 0.6748 0.6748 0 0.00211879 0.00211879 0.000261648 269.275 9533.83 13773.3 
1202 0.5378 0.5378 0 0.00235204 0.00235204 0.000187132 214.589 10004.7 12222 
1242 0.4108 0.4108 0 0.00377734 0.00377734 0.000153977 164.516 10796.4 13193.2 
3 0.0276 0.0276 0 0.000678771 0.000678771 6.30914e-05 220.988 25717.6 28932.5 
43 9.4928 9.4928 0 0.388407 0.388407 -0.000292089 3884.07 210756 304005 
83 10.3644 10.3644 0 0.420756 0.420756 0.000532371 4207.56 199675 282669 
123 10.8692 10.8692 0 0.438323 0.438323 -0.000151456 4383.23 182794 270814 
163 10.8372 10.8372 0 0.436292 0.436292 -0.000500101 4362.92 184885 270863 
203 10.8986 10.8986 0 0.43901 0.43901 0.000986116 4390.1 182581 266294 
243 10.6336 10.6336 0 0.429156 0.429156 -0.00088579 4291.56 187324 279012 
283 9.759 9.759 0 0.396846 0.396846 0.00094079 3968.46 207363 296816 
323 0.0992 0.0992 0 0.003631 0.003631 5.69551e-05 755.594 43521.2 76845.9 
363 0.4468 0.4468 0 0.00315619 0.00315619 -2.59793e-05 176.407 9158.12 12448.9 
403 0.5946 0.5946 0 0.00201577 0.00201577 -0.000183386 234.822 9835.38 13208.7 
443 0.7242 0.7242 0 0.0017396 0.0017396 0.000105935 287.422 9160.12 12507.2 
483 0.8082 0.8082 0 0.00178554 0.00178554 0.000181157 317.951 10073 12917.3 
523 0.8572 0.8572 0 0.00203601 0.00203601 -0.000139111 335.659 10206.3 14443.9 
563 0.8808 0.8808 0 0.00204412 0.00204412 0.000177505 350.631 10448.4 14898.9 
603 0.844 0.844 0 0.00284998 0.00284998 1.04381e-05 336.52 12506 16864.3 
643 0.005 0.005 0 -0.000137266 -0.000137266 9.70535e-06 34.6789 1163.74 163.363 
683 0.2218 0.2218 0 -0.00869796 -0.00869796 0.000100667 86.9796 1874.11 2508.4 
723 0.229 0.229 0 -0.00889899 -0.00889899 -1.2084e-05 88.9899 2299.67 3458.17 
763 0.2376 0.2376 0 -0.00957762 -0.00957762 -3.13491e-05 95.7762 2847.96 4265.36 
803 0.2454 0.2454 0 -0.0101388 -0.0101388 0.000188271 101.388 4186.99 5668.84 
843 0.2274 0.2274 0 -0.0089754 -0.0089754 7.3957e-05 89.754 3244.96 4765.36 
883 0.22 0.22 0 -0.00858368 -0.00858368 -5.65773e-05 85.8368 1623.65 2119.93 
923 0.1996 0.1996 0 -0.00769938 -0.00769938 2.82399e-05 76.9938 1635.61 2524.78 
963 0.5748 0.5748 0 0.00460072 0.00460072 8.42914e-05 229.086 11571.3 14409.3 
1003 0.892 0.892 0 0.00256816 0.00256816 0.000313139 349.994 9218.86 13321.4 
1043 0.9044 0.9044 0 0.0025426 0.0025426 0.000319374 360.7 10653.1 15446 
1083 0.8148 0.8148 0 0.0016991 0.0016991 -0.000265073 324.723 8375.27 11647.4 
1123 0.7784 0.7784 0 0.00201162 0.00201162 2.42214e-07 309.586 10578.6 13943.9 
1163 0.652 0.652 0 0.00152146 0.00152146 -5.86411e-05 261.823 8129.87 11445.6 
1203 0.5308 0.5308 0 0.00218319 0.00218319 -0.000235564 214.714 8984.04 11720.2 
1243 0.395 0.395 0 0.00381443 0.00381443 -0.000206923 161.739 11386.7 13619.3 
4 0.0408 0.0408 0 0.00104478 0.00104478 -1.39637e-05 318.57 7441.28 15829.5 
44 9.5162 9.5162 0 0.389887 0.389887 -0.000706193 3898.87 217791 310520 
84 10.5138 10.5138 0 0.425848 0.425848 0.000169023 4258.48 192368 279336 
124 10.88 10.88 0 0.440029 0.440029 -0.00109676 4400.29 183580 270141 
164 10.9714 10.9714 0 0.442021 0.442021 0.00162097 4420.21 182164 262911 
204 10.714 10.714 0 0.433782 0.433782 -0.000245198 4337.82 176093 259215 
244 10.585 10.585 0 0.428546 0.428546 0.000815148 4285.46 188855 273269 
284 9.7732 9.7732 0 0.39882 0.39882 -0.000713521 3988.2 206910 301556 
324 0.0958 0.0958 0 0.00325415 0.00325415 0.000229238 747.674 51239.1 69846.9 
364 0.4462 0.4462 0 0.00272201 0.00272201 -1.29551e-05 180.237 9444.24 11681.2 
404 0.6024 0.6024 0 0.00195397 0.00195397 4.64346e-05 243.922 9964.39 13444.5 
444 0.7128 0.7128 0 0.00191585 0.00191585 -0.000476676 284.414 10140.2 14378.4 
484 0.7914 0.7914 0 0.00175705 0.00175705 7.71762e-06 309.585 8565.11 12430.2 
524 0.868 0.868 0 0.00175137 0.00175137 0.000125668 346.114 9754.61 13792 
564 0.9214 0.9214 0 0.0024367 0.0024367 0.000448842 365.48 11441.7 14756 
604 0.8304 0.8304 0 0.00246278 0.00246278 -4.31381e-05 329.432 11963.6 15853.2 
644 0.0032 0.0032 0 -8.48681e-05 -8.48681e-05 -1.34872e-05 19.3096 881.28 1453 
684 0.2302 0.2302 0 -0.00891706 -0.00891706 -9.0707e-06 89.1706 1668.15 2395.3 
724 0.2346 0.2346 0 -0.00940014 -0.00940014 2.11705e-05 94.0014 2550.07 3314.71 
764 0.251 0.251 0 -0.00993614 -0.00993614 6.29259e-05 99.3614 2828.61 4077.34 
804 0.258 0.258 0 -0.0102486 -0.0102486 -8.14309e-05 102.486 2611.59 4456.68 
844 0.2376 0.2376 0 -0.00940024 -0.00940024 3.57871e-05 94.0024 2967.71 4894.59 
884 0.2322 0.2322 0 -0.00913 -0.00913 6.64858e-06 91.3 1562.5 1670.74 
924 0.2078 0.2078 0 -0.00804024 -0.00804024 0.000236605 80.4024 433.643 1089.25 
964 0.6102 0.6102 0 0.00431999 0.00431999 -0.000382386 243.797 12774.5 16100.7 
1004 0.8762 0.8762 0 0.00224255 0.00224255 -2.82302e-06 351.729 13540.9 17952.7 
1044 0.8812 0.8812 0 0.00141666 0.00141666 -9.87524e-05 347.828 10668.3 14441.6 
1084 0.8372 0.8372 0 0.00198039 0.00198039 0.000107832 334.666 12195.7 17545.8 
1124 0.7474 0.7474 0 0.00146573 0.00146573 -0.00016729 301.973 10375.8 14916 
1164 0.6878 0.6878 0 0.00232097 0.00232097 -0.000199181 274.272 9845.16 13541.1 
1204 0.5268 0.5268 0 0.00179861 0.00179861 -0.000296579 208.887 7796.63 10210.5 
1244 0.3952 0.3952 0 0.00341492 0.00341492 7.86492e-05 159.626 9100.9 11446.4 
5 0.0464 0.0464 0 0.00132813 0.00132813 -8.13209e-05 370.792 31812.3 42355.1 
45 9.6892 9.6892 0 0.396062 0.396062 0.000662354 3960.62 205940 296456 
85 10.4634 10.4634 0 0.42517 0.42517 0.00153661 4251.7 194413 282024 
125 10.908 10.908 0 0.440516 0.440516 0.00125485 4405.16 183229 272023 
165 11.1274 11.1274 0 0.447941 0.447941 -0.000604731 4479.41 190317 273225 
205 10.8462 10.8462 0 0.437828 0.437828 -0.000614747 4378.28 180140 265635 
245 10.5076 10.5076 0 0.425258 0.425258 0.000855391 4252.58 192107 282904 
285 9.6232 9.6232 0 0.392727 0.392727 -0.000309687 3927.27 210672 300556 
325 0.0762 0.0762 0 0.00259166 0.00259166 -5.13511e-05 567.53 43324.6 51866.5 
365 0.4572 0.4572 0 0.00254625 0.00254625 1.90661e-05 183.125 9673.01 12177.5 
405 0.5952 0.5952 0 0.00217285 0.00217285 0.000449536 235.143 7286.62 9939.61 
445 0.713 0.713 0 0.00167652 0.00167652 4.18164e-05 285.208 10061.4 14196.6 
485 0.816 0.816 0 0.00229381 0.00229381 5.69462e-05 320.697 8939.01 13208.2 
525 0.8582 0.8582 0 0.00181074 0.00181074 -0.000201008 339.981 10535.2 15012.2 
565 0.8924 0.8924 0 0.00204318 0.00204318 -0.000614502 356.247 9165.15 13431.7 
605 0.8396 0.8396 0 0.00200397 0.00200397 4.16503e-05 334.328 13038.7 17911.6 
645 0.0036 0.0036 0 -9.69168e-05 -9.69168e-05 8.95015e-06 21.4189 -107.172 -848.057 
685 0.2228 0.2228 0 -0.00868452 -0.00868452 0.00011762 86.8452 554.431 1889.1 
725 0.228 0.228 0 -0.00888496 -0.00888496 -8.95355e-06 88.8496 2185.93 3075.03 
765 0.2314 0.2314 0 -0.00936632 -0.00936632 0.000118688 93.6632 3746.19 5499.82 
805 0.2398 0.2398 0 -0.00993276 -0.00993276 0.000175113 99.3276 3800.1 5655.3 
845 0.2268 0.2268 0 -0.00904504 -0.00904504 -2.34794e-05 90.4504 4006.42 4866.17 
885 0.2168 0.2168 0 -0.00853864 -0.00853864 -5.9598e-05 85.3864 1856.74 2325.17 
925 0.219 0.219 0 -0.00850777 -0.00850777 -0.00013786 85.0777 1554.88 1669.76 
965 0.6406 0.6406 0 0.0039978 0.0039978 -0.000221046 258.013 11370.3 16247.9 
1005 0.8674 0.8674 0 0.00213097 0.00213097 0.000223712 348.673 10783.1 14955.4 
1045 0.879 0.879 0 0.00210063 0.00210063 -0.000540141 350.191 9525.81 13298.2 
1085 0.8298 0.8298 0 0.00212949 0.00212949 0.000712815 333.431 10615.8 15672.5 
1125 0.7792 0.7792 0 0.00229188 0.00229188 -0.000201612 308.866 10568.7 14753.4 
1165 0.6784 0.6784 0 0.0021082 0.0021082 -7.80635e-05 270.405 8039.21 10856.8 
1205 0.5304 0.5304 0 0.00243232 0.00243232 -9.95335e-05 211.662 8417.94 11793.5 
1245 0.4096 0.4096 0 0.00364424 0.00364424 -0.000200568 163.515 10366.2 12984.5 
6 0.0582 0.0582 0 0.00173218 0.00173218 -4.90251e-05 430.736 25947 44660.3 
46 9.5742 9.5742 0 0.390767 0.390767 -0.000451538 3907.67 207533 302030 
86 10.5076 10.5076 0 0.42664 0.42664 -0.000234361 4266.4 187830 277145 
126 10.8294 10.8294 0 0.438224 0.438224 -0.00107434 4382.24 189438 275862 
166 10.9346 10.9346 0 0.44012 0.44012 0.00222481 4401.2 183849 265127 
206 10.7956 10.7956 0 0.435461 0.435461 2.37902e-05 4354.61 187126 266990 
246 10.4584 10.4584 0 0.423912 0.423912 -0.000779015 4239.12 189894 276731 
286 9.5872 9.5872 0 0.391564 0.391564 -0.00102523 3915.64 206102 299535 
326 0.0606 0.0606 0 0.00187179 0.00187179 -1.56923e-05 464.595 31724.2 48837.9 
366 0.4452 0.4452 0 0.00242943 0.00242943 0.000216714 181.018 9130.46 12099.4 
406 0.5696 0.5696 0 0.00197312 0.00197312 -8.51262e-05 230.189 7573.63 10608.1 
446 0.7068 0.7068 0 0.00160417 0.00160417 -4.17163e-05 280.901 8672.03 12280.8 
486 0.8106 0.8106 0 0.0011257 0.0011257 -0.000407714 321.791 11153.9 13910.7 
526 0.8646 0.8646 0 0.0016596 0.0016596 -0.000435289 344.97 9790.45 12665.5 
566 0.8942 0.8942 0 0.00236491 0.00236491 0.000201347 359.956 13338.2 18204 
606 0.8494 0.8494 0 0.00253265 0.00253265 -0.000449682 336.873 10984.2 15008.2 
646 0.0028 0.0028 0 -0.000109442 -0.000109442 -6.66228e-06 22.281 -934.563 426.11 
686 0.2206 0.2206 0 -0.0086098 -0.0086098 -4.1946e-05 86.098 1700.38 2100.52 
726 0.2284 0.2284 0 -0.00892214 -0.00892214 -2.43505e-05 89.2214 3660.08 5003.82 
766 0.234 0.234 0 -0.00924067 -0.00924067 9.83039e-05 92.4067 3333.57 5197.89 
806 0.2434 0.2434 0 -0.00972338 -0.00972338 -7.65159e-05 97.2338 2434.56 3569.71 
846 0.232 0.232 0 -0.00931099 -0.00931099 6.90663e-05 93.1099 2607.36 3331.9 
886 0.2268 0.2268 0 -0.00892952 -0.00892952 -0.00020239 89.2952 1962.38 2128.15 
926 0.2054 0.2054 0 -0.00806788 -0.00806788 2.25677e-05 80.6788 2014.46 2267.87 
966 0.6438 0.6438 0 0.00413422 0.00413422 0.000189814 255.423 11775.3 16311.3 
1006 0.897 0.897 0 0.00232123 0.00232123 -4.26167e-05 359.384 9394.56 12459.4 
1046 0.9256 0.9256 0 0.00228207 0.00228207 -2.00991e-05 364.594 12962.2 17752.2 
1086 0.8426 0.8426 0 0.00256412 0.00256412 -7.1679e-05 336.266 10959.5 15336.6 
1126 0.7376 0.7376 0 0.00146347 0.00146347 -0.00028369 295.877 8783.48 12541.4 
1166 0.6448 0.6448 0 0.00187046 0.00187046 -0.00011892 259.733 9757.25 14094.4 
1206 0.5112 0.5112 0 0.00218899 0.00218899 -7.41101e-05 203.578 8820.16 11242.9 
1246 0.4064 0.4064 0 0.00395813 0.00395813 0.000184777 162.45 11156.9 13835.7 
7 0.071 0.071 0 0.00230617 0.00230617 -0.000111315 532.231 48669.7 61426.4 
47 9.6678 9.6678 0 0.394926 0.394926 -0.00018596 3949.26 211334 307125 
87 10.5542 10.5542 0 0.427538 0.427538 -0.00128933 4275.38 188644 274946 
127 10.869 10.869 0 0.440037 0.440037 1.73709e-05 4400.37 181432 265957 
167 10.981 10.981 0 0.442763 0.442763 -0.000660093 4427.63 183322 267308 
207 10.9258 10.9258 0 0.440551 0.440551 -0.000207006 4405.51 182216 267700 
247 10.4934 10.4934 0 0.424378 0.424378 -0.00117736 4243.78 196407 283896 
287 9.5788 9.5788 0 0.391415 0.391415 0.000234027 3914.15 205707 292055 
327 0.0478 0.0478 0 0.00143153 0.00143153 2.7032e-05 375.664 29628.1 31630.4 
367 0.474 0.474 0 0.00286977 0.00286977 -2.75608e-05 189.14 10467.4 13302.5 
407 0.6058 0.6058 0 0.00166985 0.00166985 0.000286762 243.007 9869.22 13560.9 
447 0.7358 0.7358 0 0.00182252 0.00182252 -0.000290295 286.589 10082.9 13388.1 
487 0.837 0.837 0 0.00177701 0.00177701 0.000444502 332.746 11726.2 14941.6 
527 0.881 0.881 0 0.001935 0.001935 0.000222716 351.718 11844.1 16534 
567 0.887 0.887 0 0.00197623 0.00197623 2.97723e-05 354.432 10101.9 14435.3 
607 0.849 0.849 0 0.00252671 0.00252671 0.000463986 334.465 12623 15869.9 
647 0.0664 0.0664 0 -0.0024047 -0.0024047 4.36252e-05 24.047 477.648 573.918 
687 0.2358 0.2358 0 -0.00924621 -0.00924621 -7.26664e-05 92.4621 1454.81 2321.18 
727 0.234 0.234 0 -0.00927185 -0.00927185 -7.55429e-05 92.7185 2497.88 2809.37 
767 0.2444 0.2444 0 -0.00979056 -0.00979056 3.39409e-05 97.9056 2643.6 4137.34 
807 0.2358 0.2358 0 -0.0093616 -0.0093616 -4.68415e-05 93.616 3386.59 6224.8 
847 0.2312 0.2312 0 -0.00913056 -0.00913056 -7.52858e-06 91.3056 2041.56 3361.48 
887 0.2218 0.2218 0 -0.00875548 -0.00875548 0.000159456 87.5548 670.466 1481.78 
927 0.2132 0.2132 0 -0.00802333 -0.00802333 5.63446e-05 80.2333 274.26 1100.08 
967 0.678 0.678 0 0.00392705 0.00392705 0.000171271 268.619 11572.3 15435.8 
1007 0.9076 0.9076 0 0.00232153 0.00232153 8.30769e-05 362.451 11074.6 15136.1 
1047 0.8754 0.8754 0 0.00174492 0.00174492 -8.13904e-05 347.976 10967.6 14727 
1087 0.859 0.859 0 0.00224769 0.00224769 0.000290121 338.434 9560.97 12926 
1127 0.7718 0.7718 0 0.00195646 0.00195646 0.000295583 305.626 10645.4 13325 
1167 0.6536 0.6536 0 0.00183044 0.00183044 0.000222887 261.196 7931.91 12023.4 
1207 0.5438 0.5438 0 0.00226121 0.00226121 -0.00012644 215.401 6736.16 11115.9 
1247 0.4016 0.4016 0 0.00371745 0.00371745 -0.000261523 160.419 11401.7 13874.8 
8 0.085 0.085 0 0.00290463 0.00290463 -7.0128e-06 654.666 37367.5 49686.7 
48 9.7008 9.7008 0 0.395742 0.395742 -9.1665e-05 3957.42 213443 306110 
88 10.562 10.562 0 0.428756 0.428756 -0.000739695 4287.56 191274 280928 
128 10.8458 10.8458 0 0.438278 0.438278 -0.00133105 4382.78 181339 266043 
168 10.8728 10.8728 0 0.437265 0.437265 -0.000925117 4372.65 181337 264824 
208 10.9908 10.9908 0 0.443087 0.443087 0.00105648 4430.87 181353 269754 
248 10.5434 10.5434 0 0.4281 0.4281 0.000687113 4281 192731 280852 
288 9.5378 9.5378 0 0.389274 0.389274 -0.000237885 3892.74 213969 307320 
328 0.0326 0.0326 0 0.000844818 0.000844818 1.45089e-05 247.028 19479.2 27008 
368 0.4542 0.4542 0 0.00263651 0.00263651 -0.000145916 181.651 8282.6 12361.8 
408 0.6114 0.6114 0 0.00231068 0.00231068 -0.000115002 244.817 10238.4 13691.7 
448 0.7334 0.7334 0 0.00241107 0.00241107 0.000471566 292.355 10758.9 14201.8 
488 0.7902 0.7902 0 0.00157235 0.00157235 -9.20918e-05 313.064 12593.2 17002.5 
528 0.8728 0.8728 0 0.00260426 0.00260426 -0.000139177 347.759 11995.2 16507.3 
568 0.8928 0.8928 0 0.00222328 0.00222328 -4.67585e-05 354.582 11358.1 16908 
608 0.8242 0.8242 0 0.00297892 0.00297892 -0.000219213 326.486 10610.7 14828.4 
648 0.0928 0.0928 0 -0.00350446 -0.00350446 -7.63726e-05 35.0446 -0.0739925 565.131 
688 0.2218 0.2218 0 -0.00857155 -0.00857155 -8.85091e-05 85.7155 1675.4 2690.16 
728 0.227 0.227 0 -0.008985 -0.008985 0.000108364 89.85 2773.21 3771.14 
768 0.2496 0.2496 0 -0.0102988 -0.0102988 -1.54118e-05 102.988 3540.89 5865.2 
808 0.2548 0.2548 0 -0.0103456 -0.0103456 -4.26079e-05 103.456 3439.23 4952.47 
848 0.2204 0.2204 0 -0.0086572 -0.0086572 -0.000202023 86.572 2186.13 3281.85 
888 0.2284 0.2284 0 -0.00886205 -0.00886205 0.000273344 88.6205 1302.24 2180.33 
928 0.219 0.219 0 -0.00865466 -0.00865466 -7.81895e-06 86.5466 754.652 1076.68 
968 0.68 0.68 0 0.00328991 0.00328991 -1.96708e-05 274.8 11415.1 14743.2 
1008 0.8572 0.8572 0 0.00202808 0.00202808 -0.000166453 343.594 11521.8 15528.3 
1048 0.8808 0.8808 0 0.00191203 0.00191203 -9.4165e-06 353.394 9830.96 13126.4 
1088 0.8582 0.8582 0 0.00173787 0.00173787 -0.000164823 342.037 9671.53 12612.1 
1128 0.7692 0.7692 0 0.00209395 0.00209395 -0.000110651 305.392 9353.88 14330.3 
1168 0.6808 0.6808 0 0.00189536 0.00189536 3.81104e-05 271.655 7362.15 11656.9 
1208 0.5162 0.5162 0 0.00249429 0.00249429 -2.55679e-05 205.071 9549.72 12767.2 
1248 0.3926 0.3926 0 0.00436237 0.00436237 0.000230885 155.35 12176 13915.6 
9 0.1074 0.1074 0 0.0039397 0.0039397 5.29136e-05 834.574 57489.8 72965.5 
49 9.7662 9.7662 0 0.397771 0.397771 -0.000438906 3977.71 208145 299108 
89 10.5496 10.5496 0 0.426414 0.426414 0.000782852 4264.14 194805 281374 
129 10.8562 10.8562 0 0.438041 0.438041 0.000380258 4380.41 180811 263224 
169 10.9822 10.9822 0 0.441655 0.441655 -0.00166819 4416.55 184981 268121 
209 10.6966 10.6966 0 0.431044 0.431044 -0.00108089 4310.44 188455 270594 
249 10.5832 10.5832 0 0.428517 0.428517 0.000121143 4285.17 189468 279019 
289 9.5394 9.5394 0 0.389417 0.389417 -0.00039092 3894.17 213742 305176 
329 0.0296 0.0296 0 0.000800966 0.000800966 -7.6129e-06 240.501 18139.5 23027 
369 0.4576 0.4576 0 0.00246378 0.00246378 -0.000172613 185.8 7949.37 10941.7 
409 0.6124 0.6124 0 0.00175555 0.00175555 -0.000342982 248.525 7107.85 10573 
449 0.7464 0.7464 0 0.001688 0.001688 7.83114e-05 297.265 11304.3 14298.8 
489 0.82 0.82 0 0.00155863 0.00155863 -0.00017376 323.242 10914.3 14756.9 
529 0.8834 0.8834 0 0.00198649 0.00198649 3.19828e-05 350.886 10899.8 14549.1 
569 0.882 0.882 0 0.00174767 0.00174767 0.000129895 353.748 11529 15866.4 
609 0.8636 0.8636 0 0.00235263 0.00235263 -0.000104595 342.84 11795.9 16252.4 
649 0.1132 0.1132 0 -0.00422229 -0.00422229 0.000136935 42.2229 402.936 801.171 
689 0.2242 0.2242 0 -0.00881082 -0.00881082 0.000105395 88.1082 1497.63 2192.77 
729 0.23 0.23 0 -0.00899914 -0.00899914 -0.000110492 89.9914 1951.94 2908.82 
769 0.2396 0.2396 0 -0.00950394 -0.00950394 -8.56581e-05 95.0394 2730.77 5262.3 
809 0.2526 0.2526 0 -0.00999131 -0.00999131 0.000152456 99.9131 3988.7 4732.12 
849 0.229 0.229 0 -0.00918626 -0.00918626 0.000174804 91.8626 2238.92 3236.93 
889 0.2378 0.2378 0 -0.0093198 -0.0093198 -0.000151515 93.198 2216.5 2884.59 
929 0.2004 0.2004 0 -0.00772942 -0.00772942 7.34627e-05 77.2942 521.815 615.981 
969 0.6966 0.6966 0 0.00387347 0.00387347 -4.56726e-05 279.951 12381.9 17039.5 
1009 0.8682 0.8682 0 0.0018027 0.0018027 -0.000562106 348.292 11006.1 16675 
1049 0.8776 0.8776 0 0.00195851 0.00195851 0.000335671 350.642 11423.9 14706.5 
1089 0.8358 0.8358 0 0.00185655 0.00185655 -0.000308681 332.289 9612.49 15197.8 
1129 0.7702 0.7702 0 0.00172974 0.00172974 -8.0731e-05 309.584 11002.6 15637.5 
1169 0.673 0.673 0 0.00191521 0.00191521 -0.000105036 269.091 9021.88 12359.6 
1209 0.5172 0.5172 0 0.00211237 0.00211237 -0.000221748 206.625 8070.48 11035.9 
1249 0.3904 0.3904 0 0.00394675 0.00394675 0.000226232 154.34 11117 14039.8 
10 0.1398 0.1398 0 0.00538408 0.00538408 0.000127853 1099.39 90776.7 105003 
50 9.7808 9.7808 0 0.398073 0.398073 -5.04455e-05 3980.73 194271 284788 
90 10.6108 10.6108 0 0.429779 0.429779 -0.000487211 4297.79 188414 277484 
130 10.9078 10.9078 0 0.440033 0.440033 -0.00031216 4400.33 186711 273718 
170 10.9708 10.9708 0 0.441769 0.441769 8.68412e-05 4417.69 179666 265173 
210 10.9138 10.9138 0 0.440405 0.440405 -0.000846422 4404.05 187251 272553 
250 10.4978 10.4978 0 0.424532 0.424532 0.00263704 4245.32 190180 274208 
290 9.3812 9.3812 0 0.385149 0.385149 0.00012512 3851.49 203861 298333 
330 0.03 0.03 0 0.000702484 0.000702484 -0.000108991 218.142 27352.2 35872.6 
370 0.4586 0.4586 0 0.00263847 0.00263847 -0.000165401 183.877 9043.94 12953 
410 0.6012 0.6012 0 0.00186444 0.00186444 -8.94922e-05 242.078 10318.2 14209 
450 0.733 0.733 0 0.00183094 0.00183094 -7.61173e-05 290.251 9756.44 13079.1 
490 0.8132 0.8132 0 0.00179482 0.00179482 0.000169178 329.802 10146.9 13201.2 
530 0.8804 0.8804 0 0.00159844 0.00159844 -0.000305692 350.148 10950.9 14730.2 
570 0.8702 0.8702 0 0.00238909 0.00238909 0.000231009 344.521 10890.9 15122 
610 0.842 0.842 0 0.00297302 0.00297302 0.000170081 329.741 11093.7 15763.4 
650 0.1332 0.1332 0 -0.00505214 -0.00505214 0.000170876 50.5214 298.819 810.619 
690 0.2266 0.2266 0 -0.008668 -0.008668 -0.000114074 86.68 377.998 1018.98 
730 0.2188 0.2188 0 -0.00866914 -0.00866914 -4.83257e-05 86.6914 3177.12 4400.24 
770 0.2358 0.2358 0 -0.0094454 -0.0094454 6.78538e-05 94.454 2895.21 4784.23 
810 0.2434 0.2434 0 -0.00992974 -0.00992974 -0.000178556 99.2974 4401.89 6363.69 
850 0.2262 0.2262 0 -0.00907801 -0.00907801 -0.000200255 90.7801 2750.2 2491.78 
890 0.2188 0.2188 0 -0.00847294 -0.00847294 1.93334e-05 84.7294 1830.27 2083.02 
930 0.2136 0.2136 0 -0.00813667 -0.00813667 -0.000213577 81.3667 1516.81 2537.01 
970 0.7016 0.7016 0 0.00347429 0.00347429 0.000490346 280.313 12290.9 15680.7 
1010 0.873 0.873 0 0.00226017 0.00226017 0.000325076 349.36 12170.9 15319.5 
1050 0.8782 0.8782 0 0.00160323 0.00160323 -0.000171268 347.68 11302.8 16224.5 
1090 0.8372 0.8372 0 0.00170952 0.00170952 0.000213108 334.211 10210.3 13951.8 
1130 0.7402 0.7402 0 0.00160173 0.00160173 0.000132347 294.559 8949.65 13439.6 
1170 0.6624 0.6624 0 0.0019278 0.0019278 4.16982e-05 259.833 8489.44 12084.6 
1210 0.4868 0.4868 0 0.00214702 0.00214702 0.000381213 196.566 8292.71 11918.8 
1250 0.3952 0.3952 0 0.00445193 0.00445193 0.000126069 158.058 13618.8 16863.8 
11 0.1512 0.1512 0 0.00599019 0.00599019 -8.82574e-07 1195.51 104143 146310 
51 9.7914 9.7914 0 0.400884 0.400884 0.000784211 4008.84 203289 293724 
91 10.5858 10.5858 0 0.428179 0.428179 0.000641695 4281.79 198545 285508 
131 10.8806 10.8806 0 0.437985 0.437985 0.000910808 4379.85 180172 266025 
171 10.874 10.874 0 0.43961 0.43961 -0.00123595 4396.1 188278 270979 
211 10.721 10.721 0 0.433255 0.433255 -0.00017399 4332.55 183768 264213 
251 10.3576 10.3576 0 0.418979 0.418979 -0.00124961 4189.79 186452 273100 
291 9.4324 9.4324 0 0.385848 0.385848 0.000656243 3858.48 217577 311605 
331 0.022 0.022 0 0.000485862 0.000485862 -5.65777e-06 168.032 11422.9 17082.4 
371 0.473 0.473 0 0.00274896 0.00274896 5.58401e-05 190.124 8282.69 10896.3 
411 0.6136 0.6136 0 0.00207318 0.00207318 4.22081e-05 246.906 7402.9 10817 
451 0.713 0.713 0 0.00142691 0.00142691 -0.000152462 284.297 9940.5 13999.3 
491 0.8196 0.8196 0 0.00207599 0.00207599 -5.83449e-05 326.08 10890.7 15207.5 
531 0.866 0.866 0 0.00188477 0.00188477 -1.38044e-05 343.469 11775.2 16438.5 
571 0.9112 0.9112 0 0.00230265 0.00230265 -0.000116285 362.206 11641.8 14762.7 
611 0.818 0.818 0 0.00231817 0.00231817 0.000176254 323.652 10633.9 14129.3 
651 0.135 0.135 0 -0.00530481 -0.00530481 1.31702e-07 53.0481 1052.94 1426.21 
691 0.218 0.218 0 -0.00857843 -0.00857843 -5.58503e-05 85.7843 1138.81 1917.01 
731 0.2226 0.2226 0 -0.00877577 -0.00877577 0.000253261 87.7577 1690.61 2181.92 
771 0.258 0.258 0 -0.0102198 -0.0102198 0.000111508 102.198 3266.92 4792.56 
811 0.2428 0.2428 0 -0.00965094 -0.00965094 -0.00013971 96.5094 3515.78 4689.91 
851 0.225 0.225 0 -0.00912479 -0.00912479 -0.000168733 91.2479 2785.02 4111.31 
891 0.2382 0.2382 0 -0.00931023 -0.00931023 2.17957e-05 93.1023 2422.72 2365.53 
931 0.2046 0.2046 0 -0.00791987 -0.00791987 1.86697e-05 79.1987 775.001 1126.15 
971 0.7244 0.7244 0 0.00259991 0.00259991 7.60316e-05 287.42 9036.03 13397.4 
1011 0.891 0.891 0 0.00181254 0.00181254 -0.000436997 354.133 10820.4 14547.7 
1051 0.8854 0.8854 0 0.00203748 0.00203748 0.000194476 354.798 11390.3 16640.3 
1091 0.8356 0.8356 0 0.00197248 0.00197248 -0.00027402 333.484 8488.38 12495.8 
1131 0.7422 0.7422 0 0.00191343 0.00191343 9.41771e-05 297.289 11450.6 15046.2 
1171 0.6518 0.6518 0 0.00176233 0.00176233 6.18869e-05 257.208 10564.2 12688.2 
1211 0.5046 0.5046 0 0.00206673 0.00206673 -0.000212266 202.619 8534.56 11930.8 
1251 0.3842 0.3842 0 0.00454986 0.00454986 4.01691e-05 151.133 13036.4 15396.5 
12 0.1964 0.1964 0 0.00815362 0.00815362 -0.000112546 1609.36 144875 183909 
52 9.8522 9.8522 0 0.403199 0.403199 0.000255263 4031.99 198530 289396 
92 10.6314 10.6314 0 0.431788 0.431788 0.00101376 4317.88 192187 278407 
132 10.8604 10.8604 0 0.438691 0.438691 -0.000666925 4386.91 180556 258567 
172 10.9004 10.9004 0 0.43892 0.43892 0.00102248 4389.2 184277 271883 
212 10.7742 10.7742 0 0.434732 0.434732 0.000564326 4347.32 180239 267537 
252 10.4826 10.4826 0 0.424941 0.424941 -0.000339142 4249.41 185589 276277 
292 9.2568 9.2568 0 0.378025 0.378025 0.000972871 3780.25 208254 302219 
332 0.2392 0.2392 0 0.00434976 0.00434976 -7.54334e-05 89.8578 11338.9 13928.9 
372 0.466 0.466 0 0.00240321 0.00240321 3.9899e-05 186.579 9513.56 12452.6 
412 0.604 0.604 0 0.00164097 0.00164097 9.48624e-05 241.727 8203.64 12619.7 
452 0.7376 0.7376 0 0.00135477 0.00135477 -3.69403e-05 295.147 10350.4 15245.8 
492 0.8154 0.8154 0 0.00165457 0.00165457 -0.000346001 324.33 11145.1 14347.4 
532 0.8826 0.8826 0 0.00143756 0.00143756 9.37608e-05 351.018 10483.3 14726.3 
572 0.8744 0.8744 0 0.00185077 0.00185077 2.39917e-05 350.872 12228.1 16817.5 
612 0.8152 0.8152 0 0.0026758 0.0026758 2.68256e-05 322.754 10895.1 15790.8 
652 0.1582 0.1582 0 -0.00618929 -0.00618929 0.000122148 61.8929 819.431 1528.34 
692 0.2394 0.2394 0 -0.00928298 -0.00928298 0.000153503 92.8298 2087.53 2584.77 
732 0.2302 0.2302 0 -0.00896115 -0.00896115 8.3949e-05 89.6115 3954.45 4668.41 
772 0.2342 0.2342 0 -0.0094726 -0.0094726 -0.000231134 94.726 3122.54 4395.69 
812 0.2586 0.2586 0 -0.0102734 -0.0102734 -0.000309076 102.734 2894.78 4695.79 
852 0.2226 0.2226 0 -0.00900161 -0.00900161 -2.42537e-05 90.0161 2809.07 4473.89 
892 0.2164 0.2164 0 -0.00855017 -0.00855017 5.4604e-05 85.5017 947.069 1195.2 
932 0.1988 0.1988 0 -0.00769496 -0.00769496 6.3832e-05 76.9496 944.707 1554.41 
972 0.733 0.733 0 0.00381663 0.00381663 -3.11109e-05 291.292 11854.7 15159.1 
1012 0.8474 0.8474 0 0.00235611 0.00235611 0.000283924 337.057 10096.9 13361.4 
1052 0.8632 0.8632 0 0.00177314 0.00177314 0.000165948 341.312 10113 14396.5 
1092 0.8254 0.8254 0 0.00191455 0.00191455 0.000123053 331.256 10243.9 15556.5 
1132 0.7562 0.7562 0 0.00162312 0.00162312 -0.000118381 303.373 10188.7 13207.5 
1172 0.6494 0.6494 0 0.00166388 0.00166388 -0.000265566 257.532 10295.4 14213.2 