ITEM: TIMESTEP
25000
ITEM: NUMBER OF SURFS
1260
ITEM: BOX BOUNDS oo rr pp
0 0.3
0 0.3
-0.5 0.5
ITEM: SURFS id f_4[1] f_4[2] f_4[3] f_4[4] f_4[5] f_4[6] f_4[7] f_4[8] f_4[9] 
1 0.0258 0.0258 0 5.66249e-05 5.66249e-05 -9.68086e-06 18.998 3124.81 5021.28 
41 9.1994 9.1994 0 0.0389232 0.0389232 0.000104545 389.232 30693.4 42360.7 
81 10.0674 10.0674 0 0.0419288 0.0419288 8.48704e-05 419.288 27195.8 37666.6 
121 10.6072 10.6072 0 0.0439272 0.0439272 1.36133e-05 439.272 26686.1 36528.1 
161 10.6798 10.6798 0 0.0440494 0.0440494 1.74515e-05 440.494 25599.4 35148 
201 10.6292 10.6292 0 0.0438794 0.0438794 -7.60629e-07 438.794 26475.2 36336.7 
241 10.3426 10.3426 0 0.0429043 0.0429043 7.08377e-05 429.043 27341.9 37418.8 
281 9.426 9.426 0 0.0396621 0.0396621 4.90541e-06 396.621 30030 40574.2 
321 0.1504 0.1504 0 0.000671562 0.000671562 -2.13023e-06 130.262 22513.9 29556.1 
361 0.627 0.627 0 0.000838005 0.000838005 3.82085e-05 27.1956 4419.48 6027.77 
401 0.7426 0.7426 0 0.000738541 0.000738541 2.99757e-05 32.9986 5234.8 6837.46 
441 0.8232 0.8232 0 0.000724216 0.000724216 -1.13503e-05 36.1136 5300.32 7228.71 
481 0.8764 0.8764 0 0.000623611 0.000623611 1.29134e-05 38.4351 5079.85 7005.72 
521 0.88 0.88 0 0.000668597 0.000668597 -3.11075e-05 38.5619 4999.98 6907.14 
561 0.9174 0.9174 0 0.000666159 0.000666159 -1.53849e-05 40.0808 4600.46 6343.33 
601 0.836 0.836 0 0.000705132 0.000705132 -4.60953e-05 36.7206 4698 6299.28 
641 0.0032 0.0032 0 -7.46694e-06 -7.46694e-06 -7.04566e-08 2.20283 195.679 474.084 
681 0.1174 0.1174 0 -0.000463898 -0.000463898 4.75453e-06 4.63898 290.169 421.285 
721 0.1792 0.1792 0 -0.000758345 -0.000758345 -1.25288e-05 7.58345 594.038 933.063 
761 0.2082 0.2082 0 -0.000884885 -0.000884885 -3.73943e-07 8.84885 735.295 1130.8 
801 0.219 0.219 0 -0.000948457 -0.000948457 3.83411e-06 9.48457 714.547 1026.32 
841 0.1958 0.1958 0 -0.00084516 -0.00084516 7.65312e-06 8.4516 770.435 1078.61 
881 0.1472 0.1472 0 -0.000605206 -0.000605206 -3.03307e-06 6.05206 382.075 658.996 
921 0.1 0.1 0 -0.000380971 -0.000380971 -1.76444e-05 3.80971 248.263 409.776 
961 0.0296 0.0296 0 4.77972e-05 4.77972e-05 -1.39124e-05 27.1572 4868.58 5831.67 
1001 0.8688 0.8688 0 0.000674377 0.000674377 -1.14949e-05 37.9827 4530.62 6176.51 
1041 0.9086 0.9086 0 0.000653054 0.000653054 -3.79454e-05 39.6841 4857.3 6525.87 
1081 0.8772 0.8772 0 0.000607849 0.000607849 3.63872e-05 38.7879 4522.4 6403.06 
1121 0.8762 0.8762 0 0.000720139 0.000720139 -2.19305e-05 38.7515 5210.03 7001.21 
1161 0.7892 0.7892 0 0.000709871 0.000709871 -8.26069e-06 35.151 5036.67 6945.66 
1201 0.7306 0.7306 0 0.000774828 0.000774828 -2.02479e-05 32.4293 5094.53 6880.66 
1241 0.5842 0.5842 0 0.000849933 0.000849933 2.77736e-05 25.2762 4276.08 5962.31 
2 0.032 0.032 0 7.67802e-05 7.67802e-05 3.32138e-06 25.9607 4932.8 6970.79 
42 9.158 9.158 0 0.0387239 0.0387239 3.20513e-05 387.239 30292.1 41742.8 
82 10.1586 10.1586 0 0.0422018 0.0422018 -1.21795e-05 422.018 27479.6 37982.1 
122 10.5238 10.5238 0 0.0434216 0.0434216 -0.000118665 434.216 26113.2 35557.6 
162 10.6352 10.6352 0 0.0437346 0.0437346 -1.23305e-05 437.346 24695.3 33871.4 
202 10.5318 10.5318 0 0.0434565 0.0434565 -0.000211343 434.565 25480.7 34839.8 
242 10.3252 10.3252 0 0.0427461 0.0427461 7.93173e-05 427.461 26326.2 36764.1 
282 9.5486 9.5486 0 0.0401046 0.0401046 3.42436e-06 401.046 29059.7 40213.7 
322 0.1158 0.1158 0 0.00050329 0.00050329 7.53196e-06 100.572 15825.4 22269.9 
362 0.6418 0.6418 0 0.000869003 0.000869003 -5.14838e-05 28.7487 4798.31 6327.56 
402 0.7584 0.7584 0 0.000768948 0.000768948 2.09442e-05 33.703 4983.09 6729.48 
442 0.8282 0.8282 0 0.000678875 0.000678875 1.2272e-05 36.4821 5267.9 7078.41 
482 0.8884 0.8884 0 0.000665888 0.000665888 3.09724e-05 38.9855 5087.23 7065.69 
522 0.917 0.917 0 0.000601564 0.000601564 -1.43737e-05 40.0427 4866.16 6668.84 
562 0.8846 0.8846 0 0.000604026 0.000604026 9.8759e-06 38.3724 4325.06 5987.75 
602 0.8292 0.8292 0 0.000677086 0.000677086 -3.63191e-06 36.3865 4696.43 6178.2 
642 0.0034 0.0034 0 -7.87192e-06 -7.87192e-06 3.01708e-06 2.30799 367.687 501.013 
682 0.1296 0.1296 0 -0.000527812 -0.000527812 3.66929e-06 5.27812 345.617 578.545 
722 0.1768 0.1768 0 -0.000750795 -0.000750795 5.61328e-06 7.50795 749.038 1089.05 
762 0.206 0.206 0 -0.00087389 -0.00087389 2.29269e-05 8.7389 690.103 1047.81 
802 0.2124 0.2124 0 -0.000919775 -0.000919775 -1.21169e-05 9.19775 760.057 1124.75 
842 0.1956 0.1956 0 -0.000832555 -0.000832555 1.91271e-05 8.32555 738.246 996.106 
882 0.164 0.164 0 -0.000698698 -0.000698698 3.14589e-06 6.98698 524.835 773.43 
922 0.0938 0.0938 0 -0.000364816 -0.000364816 4.7315e-06 3.64816 334.432 513.608 
962 0.5882 0.5882 0 0.000950688 0.000950688 -1.35947e-05 26.8924 4585.96 5845.69 
1002 0.8468 0.8468 0 0.000650102 0.000650102 1.4402e-05 37.3759 4677.12 6349.87 
1042 0.9042 0.9042 0 0.000622379 0.000622379 3.43822e-05 39.449 4854.38 6667.24 
1082 0.9004 0.9004 0 0.000646823 0.000646823 3.15715e-05 39.1472 4722.86 6482.91 
1122 0.8448 0.8448 0 0.000619931 0.000619931 2.91954e-05 36.9848 4935.8 6691.6 
1162 0.809 0.809 0 0.000708592 0.000708592 3.26019e-05 36.3746 5086.93 6786.62 
1202 0.7436 0.7436 0 0.000793499 0.000793499 4.89506e-06 32.9121 5056.78 6699.19 
1242 0.5764 0.5764 0 0.000825286 0.000825286 5.1326e-06 24.457 4087.02 5469.7 
3 0.039 0.039 0 0.000102241 0.000102241 1.03598e-05 30.4695 4797.52 7824.04 
43 9.2018 9.2018 0 0.0389354 0.0389354 -0.000172117 389.354 29611.4 40967.5 
83 10.2976 10.2976 0 0.0428086 0.0428086 4.87237e-05 428.086 26812.6 37046 
123 10.6014 10.6014 0 0.0438701 0.0438701 6.85295e-05 438.701 25846.6 35831.9 
163 10.7224 10.7224 0 0.044166 0.044166 -8.72093e-06 441.66 25098.7 34513.9 
203 10.6044 10.6044 0 0.0438156 0.0438156 -5.82495e-05 438.156 25746 35738.9 
243 10.3544 10.3544 0 0.0429469 0.0429469 -3.29119e-05 429.469 27099.3 37520.1 
283 9.4038 9.4038 0 0.0395814 0.0395814 3.93884e-05 395.814 28384.1 39275.8 
323 0.1074 0.1074 0 0.000453815 0.000453815 -2.02844e-05 94.5303 13820.3 21635.5 
363 0.6088 0.6088 0 0.000802595 0.000802595 8.61908e-06 26.5908 4609.58 6156.43 
403 0.748 0.748 0 0.000730334 0.000730334 3.1201e-05 33.3127 4942.79 6715.1 
443 0.848 0.848 0 0.000722816 0.000722816 -4.4798e-05 37.7883 5583 7352.31 
483 0.8752 0.8752 0 0.000682749 0.000682749 -6.27115e-06 38.1946 4955.36 6815.76 
523 0.9294 0.9294 0 0.000620864 0.000620864 6.15432e-06 40.8751 4682.29 6375.55 
563 0.8982 0.8982 0 0.00064644 0.00064644 -5.55784e-05 39.887 4572.75 6581.52 
603 0.8366 0.8366 0 0.000678257 0.000678257 -3.23816e-05 36.6456 4443.83 6060.47 
643 0.0028 0.0028 0 -8.89236e-06 -8.89236e-06 2.30452e-07 1.92141 -24.6368 163.64 
683 0.1128 0.1128 0 -0.000458748 -0.000458748 7.48417e-07 4.58748 329.161 517.452 
723 0.174 0.174 0 -0.000715164 -0.000715164 9.05697e-06 7.15164 573.973 841.668 
763 0.2094 0.2094 0 -0.000900583 -0.000900583 -7.65682e-06 9.00583 822.356 1143.98 
803 0.2158 0.2158 0 -0.000933526 -0.000933526 -1.644e-05 9.33526 807.123 1099.61 
843 0.1962 0.1962 0 -0.000846393 -0.000846393 4.97523e-06 8.46393 706.505 973.377 
883 0.1546 0.1546 0 -0.000651839 -0.000651839 -9.82304e-06 6.51839 419.565 654.714 
923 0.1004 0.1004 0 -0.000381882 -0.000381882 -4.74994e-07 3.81882 360.511 547.389 
963 0.625 0.625 0 0.000931575 0.000931575 1.5492e-06 28.1941 4797.8 6219.66 
1003 0.8676 0.8676 0 0.000622288 0.000622288 8.71194e-06 37.7055 4523.88 6163.97 
1043 0.8932 0.8932 0 0.000621362 0.000621362 3.84164e-05 39.2149 4786.6 6441.83 
1083 0.9014 0.9014 0 0.000653551 0.000653551 4.7098e-06 39.9491 5173.77 7116.21 
1123 0.8584 0.8584 0 0.000640927 0.000640927 1.82073e-06 37.7255 4958.16 6875.03 
1163 0.8238 0.8238 0 0.000790889 0.000790889 2.92576e-05 36.6573 5366.86 7278.15 
1203 0.7124 0.7124 0 0.000796516 0.000796516 5.84829e-06 31.5354 5220.54 6906.8 
1243 0.5878 0.5878 0 0.000884953 0.000884953 -1.02515e-05 25.1303 4198.62 5657.97 
4 0.0454 0.0454 0 0.00014008 0.00014008 -6.57934e-06 37.3319 5561.22 8496.87 
44 9.3066 9.3066 0 0.0392374 0.0392374 -3.1156e-05 392.374 29714.6 41105.4 
84 10.2076 10.2076 0 0.0424686 0.0424686 -0.000193667 424.686 27048 37401.5 
124 10.591 10.591 0 0.0438407 0.0438407 -0.000107771 438.407 25956.4 36227.8 
164 10.6782 10.6782 0 0.0441386 0.0441386 -6.79885e-05 441.386 25087.8 34277.1 
204 10.6214 10.6214 0 0.0438635 0.0438635 2.9664e-06 438.635 25633.6 35645.1 
244 10.2084 10.2084 0 0.0423214 0.0423214 0.000154954 423.214 26977.6 37194.8 
284 9.4214 9.4214 0 0.0396108 0.0396108 -0.000105567 396.108 29208 40324.1 
324 0.093 0.093 0 0.000382614 0.000382614 -1.56787e-06 82.4342 12873.9 20431.8 
364 0.6718 0.6718 0 0.000877986 0.000877986 1.93389e-05 29.4116 5141.33 6751.42 
404 0.7678 0.7678 0 0.000780913 0.000780913 -3.08242e-05 34.3215 5076.09 6783.49 
444 0.857 0.857 0 0.000748695 0.000748695 -1.73405e-05 38.1439 5420.38 7289.46 
484 0.8766 0.8766 0 0.000641201 0.000641201 1.94381e-06 39.0285 4969.93 6855.83 
524 0.9096 0.9096 0 0.000620414 0.000620414 -1.82428e-05 39.6644 4930.32 6821.97 
564 0.9018 0.9018 0 0.000637792 0.000637792 -4.02769e-05 39.5235 4620.36 6381.23 
604 0.8302 0.8302 0 0.000710733 0.000710733 2.05967e-05 36.1974 4518.96 5994.95 
644 0.0036 0.0036 0 -9.45856e-06 -9.45856e-06 -3.98408e-06 2.23875 4.76308 80.3734 
684 0.1258 0.1258 0 -0.000517646 -0.000517646 1.93956e-05 5.17646 364.117 591.752 
724 0.1828 0.1828 0 -0.000772593 -0.000772593 2.16818e-05 7.72593 568.638 831.297 
764 0.2148 0.2148 0 -0.00093421 -0.00093421 -1.05679e-05 9.3421 780.646 1129.89 
804 0.1994 0.1994 0 -0.000838756 -0.000838756 1.17184e-05 8.38756 726.113 1005.87 
844 0.2054 0.2054 0 -0.000884163 -0.000884163 6.37677e-06 8.84163 670.945 970.863 
884 0.1526 0.1526 0 -0.000627792 -0.000627792 -2.8216e-06 6.27792 540.744 748.958 
924 0.0956 0.0956 0 -0.000390602 -0.000390602 -5.54049e-06 3.90602 302.192 489.115 
964 0.6122 0.6122 0 0.000845344 0.000845344 -4.19745e-05 27.6412 4559.27 5848.95 
1004 0.874 0.874 0 0.00064956 0.00064956 1.53643e-05 38.3887 4539.45 6279.46 
1044 0.8804 0.8804 0 0.000619324 0.000619324 -1.28428e-05 38.5477 4687.45 6464.34 
1084 0.893 0.893 0 0.000664427 0.000664427 1.07125e-05 39.5669 5062.58 6994.01 
1124 0.8596 0.8596 0 0.000628178 0.000628178 -3.20672e-05 37.7625 5006.73 6851.55 
1164 0.7956 0.7956 0 0.000727362 0.000727362 1.19881e-05 35.5491 5168.75 6846.87 
1204 0.7042 0.7042 0 0.000785748 0.000785748 1.54309e-05 31.8995 5151.74 6636.93 
1244 0.5664 0.5664 0 0.000899915 0.000899915 -3.66809e-05 24.1908 4327.85 5560.56 
5 0.0598 0.0598 0 0.000191987 0.000191987 2.11498e-06 48.9464 8227.66 12517.1 
45 9.3218 9.3218 0 0.0393336 0.0393336 1.54252e-06 393.336 30091.7 41725.4 
85 10.269 10.269 0 0.0426713 0.0426713 9.11526e-06 426.713 26839.8 36906.8 
125 10.6022 10.6022 0 0.043894 0.043894 -1.03064e-05 438.94 26107.9 35958.6 
165 10.6394 10.6394 0 0.0439861 0.0439861 4.02572e-05 439.861 24466.7 34479.9 
205 10.6472 10.6472 0 0.044071 0.044071 -6.77453e-05 440.71 26084 36067.1 
245 10.2914 10.2914 0 0.0426574 0.0426574 -1.03715e-05 426.574 27350.2 37454.5 
285 9.292 9.292 0 0.0391925 0.0391925 -7.35198e-05 391.925 29676 40878.6 
325 0.072 0.072 0 0.000268892 0.000268892 -1.12967e-06 60.8335 9912.42 14134.2 
365 0.6556 0.6556 0 0.00087449 0.00087449 -2.53929e-05 28.727 4634.47 6113.63 
405 0.7654 0.7654 0 0.000751166 0.000751166 -3.44143e-05 34.1048 5340.75 7029.57 
445 0.8428 0.8428 0 0.000776568 0.000776568 1.92729e-05 37.3279 5243.2 7142.48 
485 0.9092 0.9092 0 0.000696586 0.000696586 9.22527e-06 40.0737 5304.25 7262.91 
525 0.9178 0.9178 0 0.000639215 0.000639215 8.20655e-06 39.9082 4947.61 6586.97 
565 0.9162 0.9162 0 0.000632306 0.000632306 6.47258e-05 40.3882 4965.66 6710.07 
605 0.8132 0.8132 0 0.000702596 0.000702596 -2.12553e-05 35.2874 4257.68 5897.42 
645 0.0016 0.0016 0 -4.99717e-06 -4.99717e-06 2.22898e-06 1.03141 119.937 324.324 
685 0.1278 0.1278 0 -0.000506971 -0.000506971 -9.43716e-07 5.06971 470.352 670.209 
725 0.1798 0.1798 0 -0.000760563 -0.000760563 2.14231e-05 7.60563 668.666 887.704 
765 0.2156 0.2156 0 -0.000926313 -0.000926313 -1.08136e-05 9.26313 765.92 1112.11 
805 0.216 0.216 0 -0.000922568 -0.000922568 -3.53692e-05 9.22568 767.539 1126.6 
845 0.1898 0.1898 0 -0.000812098 -0.000812098 -1.50341e-05 8.12098 540.725 823.298 
885 0.1486 0.1486 0 -0.000618624 -0.000618624 -1.58445e-05 6.18624 536.4 724.402 
925 0.0902 0.0902 0 -0.000348475 -0.000348475 7.24789e-06 3.48475 326.341 482.723 
965 0.646 0.646 0 0.000871043 0.000871043 3.41339e-05 28.8433 4594.15 5920.55 
1005 0.8674 0.8674 0 0.000610565 0.000610565 -8.25521e-05 37.8566 4557.84 6175.48 
1045 0.89 0.89 0 0.000624624 0.000624624 -4.68919e-06 39.1095 4855.54 6669.54 
1085 0.8906 0.8906 0 0.000611565 0.000611565 -4.30723e-05 39.5865 5156.35 7061.17 
1125 0.8672 0.8672 0 0.000667956 0.000667956 -1.79749e-05 38.2356 5134.81 6975.83 
1165 0.8256 0.8256 0 0.000824434 0.000824434 -3.25269e-05 36.5863 5713.96 7491.13 
1205 0.7006 0.7006 0 0.000743894 0.000743894 5.09511e-06 31.2327 5093.55 6728.49 
1245 0.5622 0.5622 0 0.000889536 0.000889536 -6.09511e-06 23.948 4512.19 5943.65 
6 0.0664 0.0664 0 0.000246039 0.000246039 -1.23622e-05 57.4707 8249.22 11511.3 
46 9.3896 9.3896 0 0.0397647 0.0397647 5.45293e-05 397.647 30010.1 41468.6 
86 10.2616 10.2616 0 0.0425909 0.0425909 7.20547e-06 425.909 26027.7 36569.8 
126 10.6422 10.6422 0 0.043939 0.043939 5.68909e-05 439.39 25412.3 35900.8 
166 10.7066 10.7066 0 0.0440612 0.0440612 8.25708e-05 440.612 24909.3 34652.6 
206 10.579 10.579 0 0.0436752 0.0436752 0.000178269 436.752 26542.4 36209.3 
246 10.2596 10.2596 0 0.0427862 0.0427862 -0.00011632 427.862 26685.8 36798.9 
286 9.3088 9.3088 0 0.0394213 0.0394213 -0.000140926 394.213 29418.1 40732 
326 0.069 0.069 0 0.000244922 0.000244922 -8.11334e-06 58.2195 7851 12100.1 
366 0.6558 0.6558 0 0.000851848 0.000851848 5.32378e-06 28.5075 5097.6 6853.22 
406 0.7578 0.7578 0 0.000748497 0.000748497 -6.2966e-06 33.7053 5218.04 6928.19 
446 0.8508 0.8508 0 0.000735999 0.000735999 -2.96901e-05 37.686 5080.74 6803.48 
486 0.8828 0.8828 0 0.000698545 0.000698545 -7.00186e-05 38.87 5102.31 6893.64 
526 0.92 0.92 0 0.000618516 0.000618516 1.07888e-05 40.5879 4816.33 6791.65 
566 0.9034 0.9034 0 0.000632558 0.000632558 -1.23886e-05 39.5219 4533.05 6469.58 
606 0.812 0.812 0 0.00072905 0.00072905 3.82778e-05 35.3673 4567.96 6240.23 
646 0.0018 0.0018 0 -5.507e-06 -5.507e-06 2.04638e-06 1.11707 197.785 304.125 
686 0.1186 0.1186 0 -0.000483842 -0.000483842 -8.80281e-06 4.83842 367.834 644.764 
726 0.1754 0.1754 0 -0.000746623 -0.000746623 8.90956e-06 7.46623 509.378 774.606 
766 0.197 0.197 0 -0.000839766 -0.000839766 4.39728e-06 8.39766 674.537 1056.88 
806 0.2086 0.2086 0 -0.000902277 -0.000902277 -1.60575e-05 9.02277 751.346 1053.29 
846 0.1836 0.1836 0 -0.000766092 -0.000766092 4.22785e-06 7.66092 534.926 815.403 
886 0.1572 0.1572 0 -0.000650573 -0.000650573 6.53105e-06 6.50573 421.028 652.972 
926 0.0872 0.0872 0 -0.000336687 -0.000336687 -4.33514e-06 3.36687 261.842 432.188 
966 0.6454 0.6454 0 0.000847423 0.000847423 1.98287e-05 28.9365 4403.16 5671.55 
1006 0.8716 0.8716 0 0.000654729 0.000654729 -2.7695e-06 37.8535 4416.26 6210.11 
1046 0.9036 0.9036 0 0.000622419 0.000622419 -2.82179e-05 39.6273 4629.61 6546.83 
1086 0.897 0.897 0 0.000653363 0.000653363 -1.11936e-05 39.2085 5082 7027.99 
1126 0.8568 0.8568 0 0.000618944 0.000618944 -4.39353e-05 38.3028 5335.78 7255.21 
1166 0.7958 0.7958 0 0.000675246 0.000675246 2.51112e-06 35.4224 5080.06 6647.75 
1206 0.697 0.697 0 0.000792324 0.000792324 -3.90968e-05 31.0632 5311.57 7051.6 
1246 0.5488 0.5488 0 0.000855673 0.000855673 1.5781e-05 23.4455 4002.01 5642.94 
7 0.0844 0.0844 0 0.000321099 0.000321099 2.27746e-06 72.7496 11278.8 16879.5 
47 9.4656 9.4656 0 0.0398205 0.0398205 -0.00019326 398.205 29952.9 41583.2 
87 10.3076 10.3076 0 0.0428488 0.0428488 6.14454e-05 428.488 26724.5 37374 
127 10.5802 10.5802 0 0.0436656 0.0436656 9.96908e-06 436.656 25275.4 35434 
167 10.6054 10.6054 0 0.0437709 0.0437709 0.000148693 437.709 25918.2 34754.7 
207 10.5804 10.5804 0 0.043821 0.043821 4.93762e-05 438.21 26349.5 36182.2 
247 10.2002 10.2002 0 0.0424688 0.0424688 1.40514e-07 424.688 27063.6 37300.4 
287 9.2514 9.2514 0 0.0390588 0.0390588 0.000120856 390.588 29754.4 41025.1 
327 0.053 0.053 0 0.000171773 0.000171773 6.32675e-06 43.2414 7607.98 10872.4 
367 0.6542 0.6542 0 0.000878003 0.000878003 2.75965e-05 28.9539 5005.35 6540.06 
407 0.7654 0.7654 0 0.000774761 0.000774761 2.74849e-05 34.0565 5221.38 7087.91 
447 0.824 0.824 0 0.000658712 0.000658712 -2.8653e-05 36.4999 5083.66 6855 
487 0.8688 0.8688 0 0.000645871 0.000645871 5.742e-06 38.3947 4713.52 6558.18 
527 0.8824 0.8824 0 0.000591781 0.000591781 2.76454e-05 39.1804 4279.26 6010.46 
567 0.9042 0.9042 0 0.000718636 0.000718636 3.06326e-05 39.8861 4970.49 6612.67 
607 0.805 0.805 0 0.000654456 0.000654456 -9.72863e-06 35.3892 4552.11 5993.73 
647 0.054 0.054 0 -0.000187977 -0.000187977 2.63906e-06 1.87977 129.651 236.271 
687 0.134 0.134 0 -0.000535349 -0.000535349 7.70636e-06 5.35349 519.015 721.793 
727 0.1772 0.1772 0 -0.000744879 -0.000744879 6.85884e-06 7.44879 568.593 816.331 
767 0.1948 0.1948 0 -0.000855374 -0.000855374 2.63381e-06 8.55374 787.645 1156.81 
807 0.2124 0.2124 0 -0.000925848 -0.000925848 2.48004e-06 9.25848 900.385 1143.93 
847 0.1886 0.1886 0 -0.000811753 -0.000811753 1.9268e-05 8.11753 738.684 1023.13 
887 0.1558 0.1558 0 -0.000644687 -0.000644687 -3.37959e-06 6.44687 479.505 731.537 
927 0.0928 0.0928 0 -0.000362243 -0.000362243 -1.53212e-05 3.62243 267.048 429.257 
967 0.6686 0.6686 0 0.000885267 0.000885267 -2.47246e-05 29.5231 4479.5 5948.06 
1007 0.8844 0.8844 0 0.000617421 0.000617421 1.86908e-05 38.3573 4407.67 5994.29 
1047 0.9024 0.9024 0 0.00062076 0.00062076 1.65106e-05 39.4344 4993.61 6811.67 
1087 0.896 0.896 0 0.000631785 0.000631785 3.48274e-05 39.4354 5007.43 6772.08 
1127 0.8668 0.8668 0 0.000726684 0.000726684 -1.26419e-05 38.5758 5214.92 7171.84 
1167 0.8056 0.8056 0 0.000709297 0.000709297 -2.12682e-05 35.9058 5140.12 6994.27 
1207 0.6878 0.6878 0 0.000808873 0.000808873 1.73575e-05 30.8731 5051.52 6869.37 
1247 0.54 0.54 0 0.000833338 0.000833338 1.10606e-05 23.0441 4039.19 5466.26 
8 0.0898 0.0898 0 0.000369445 0.000369445 -8.46365e-07 78.7769 12432.7 17799.9 
48 9.4086 9.4086 0 0.039582 0.039582 9.83464e-05 395.82 29716.9 40869.8 
88 10.1976 10.1976 0 0.0423004 0.0423004 -3.52031e-05 423.004 26611.1 36714.5 
128 10.5682 10.5682 0 0.0436549 0.0436549 -4.39777e-05 436.549 26387.5 36769.2 
168 10.6998 10.6998 0 0.0438878 0.0438878 -6.94156e-05 438.878 24946.4 34654.6 
208 10.6256 10.6256 0 0.0440693 0.0440693 -1.8502e-05 440.693 25952 36469.2 
248 10.19 10.19 0 0.04231 0.04231 -3.93461e-05 423.1 26450.6 36791.2 
288 9.2892 9.2892 0 0.0392254 0.0392254 2.83833e-05 392.254 29925.7 41784.7 
328 0.0442 0.0442 0 0.000124648 0.000124648 4.19999e-06 36.3618 5155.13 8463.68 
368 0.655 0.655 0 0.000813106 0.000813106 -1.74683e-05 28.7262 4816.62 6393.59 
408 0.7604 0.7604 0 0.000789276 0.000789276 -2.70861e-05 33.7876 5055.73 6877.13 
448 0.8534 0.8534 0 0.00068756 0.00068756 3.78364e-05 37.8726 5303.79 7167.36 
488 0.8884 0.8884 0 0.000652983 0.000652983 -3.72653e-05 38.8567 5271 7226.13 
528 0.905 0.905 0 0.000659039 0.000659039 -1.73354e-05 39.915 4786.48 6529.97 
568 0.8996 0.8996 0 0.000605478 0.000605478 3.55765e-05 39.1433 4810.19 6460.38 
608 0.8148 0.8148 0 0.000714869 0.000714869 -1.17742e-05 35.5109 4590.16 6159.76 
648 0.051 0.051 0 -0.000172594 -0.000172594 -3.9762e-07 1.72594 68.2146 151.248 
688 0.1288 0.1288 0 -0.000526568 -0.000526568 1.39675e-05 5.26568 390.112 593.195 
728 0.1836 0.1836 0 -0.000771708 -0.000771708 1.12566e-05 7.71708 630.843 891.65 
768 0.1986 0.1986 0 -0.000857965 -0.000857965 -1.24334e-05 8.57965 719.973 1036.39 
808 0.2104 0.2104 0 -0.000893284 -0.000893284 1.31016e-05 8.93284 537.82 902.734 
848 0.1992 0.1992 0 -0.000851414 -0.000851414 -1.18363e-05 8.51414 706.648 922.273 
888 0.1432 0.1432 0 -0.000598894 -0.000598894 1.1212e-05 5.98894 482.166 704.65 
928 0.0842 0.0842 0 -0.000317343 -0.000317343 -2.10909e-05 3.17343 227.842 368.063 
968 0.7124 0.7124 0 0.000804546 0.000804546 7.56661e-06 31.3987 4185.92 5729.81 
1008 0.8824 0.8824 0 0.000685944 0.000685944 -5.71641e-06 38.3729 4620.03 6308.75 
1048 0.9172 0.9172 0 0.000615176 0.000615176 -5.70962e-06 40.1157 4926.9 6884.81 
1088 0.9184 0.9184 0 0.000726866 0.000726866 -9.83582e-06 39.714 5149.46 6948.24 
1128 0.8702 0.8702 0 0.000719316 0.000719316 2.1686e-05 38.6304 5172.66 7046.34 
1168 0.8232 0.8232 0 0.000787399 0.000787399 4.59801e-06 36.481 5247.71 6897.49 
1208 0.7114 0.7114 0 0.000781327 0.000781327 4.97219e-07 31.6966 5371.42 7077.76 
1248 0.5584 0.5584 0 0.000904428 0.000904428 -2.8212e-05 23.6229 4185.64 5717.77 
9 0.1058 0.1058 0 0.000444161 0.000444161 8.41191e-06 92.4867 16704.1 22742.5 
49 9.409 9.409 0 0.0395842 0.0395842 -8.53503e-05 395.842 28765.7 40297.6 
89 10.2376 10.2376 0 0.0424852 0.0424852 8.87359e-05 424.852 26634 36907 
129 10.5938 10.5938 0 0.0436879 0.0436879 -0.000136394 436.879 25994.8 35408.8 
169 10.7624 10.7624 0 0.0443378 0.0443378 -3.2676e-06 443.378 25143.8 35041.9 
209 10.512 10.512 0 0.0434732 0.0434732 -1.43803e-05 434.732 25631.5 35870.3 
249 10.1474 10.1474 0 0.0421456 0.0421456 -0.000136997 421.456 27108.2 37692.2 
289 9.1998 9.1998 0 0.038811 0.038811 -1.27102e-05 388.11 30084.8 41840.5 
329 0.0398 0.0398 0 9.26273e-05 9.26273e-05 -1.52816e-05 31.7691 4331.24 6736.61 
369 0.6442 0.6442 0 0.00081664 0.00081664 2.24891e-05 28.8953 4912.4 6471.64 
409 0.7774 0.7774 0 0.000783542 0.000783542 3.48719e-05 34.3625 5189.83 7029.97 
449 0.8346 0.8346 0 0.000691905 0.000691905 1.75529e-05 37.0646 5194.71 7028.1 
489 0.8856 0.8856 0 0.000684042 0.000684042 -3.08319e-05 38.7478 4950.99 7030.23 
529 0.9152 0.9152 0 0.000659624 0.000659624 2.62015e-05 39.5803 4820.02 6623.02 
569 0.8816 0.8816 0 0.000652853 0.000652853 7.64007e-06 38.7543 4644.01 6374.9 
609 0.8314 0.8314 0 0.000741988 0.000741988 2.63324e-05 35.8777 4574.14 6272.35 
649 0.0558 0.0558 0 -0.000195524 -0.000195524 3.05468e-06 1.95524 123.337 184.798 
689 0.138 0.138 0 -0.000569922 -0.000569922 3.43616e-06 5.69922 442.767 696.504 
729 0.1802 0.1802 0 -0.000775271 -0.000775271 -3.3179e-07 7.75271 751.981 1030.25 
769 0.2052 0.2052 0 -0.000904683 -0.000904683 1.03163e-05 9.04683 832.719 1175.08 
809 0.2146 0.2146 0 -0.000932771 -0.000932771 -8.4939e-06 9.32771 818.553 1114.84 
849 0.1998 0.1998 0 -0.000846766 -0.000846766 2.57005e-06 8.46766 590.587 896.063 
889 0.1568 0.1568 0 -0.000639609 -0.000639609 3.12436e-06 6.39609 490.056 726.236 
929 0.0818 0.0818 0 -0.000308717 -0.000308717 -1.27669e-05 3.08717 234.871 352.569 
969 0.703 0.703 0 0.000861664 0.000861664 2.56723e-05 31.1103 4765.48 6314.99 
1009 0.8802 0.8802 0 0.000634859 0.000634859 -3.98522e-05 38.2645 4890.85 6615.98 
1049 0.92 0.92 0 0.00068189 0.00068189 -6.08327e-06 39.8859 5166.59 7101.75 
1089 0.904 0.904 0 0.000681436 0.000681436 -2.21384e-05 39.9937 5095.04 6970.53 
1129 0.849 0.849 0 0.000691297 0.000691297 2.20288e-06 37.4585 5088.57 6930.18 
1169 0.8076 0.8076 0 0.000723057 0.000723057 1.08419e-05 35.7533 5271.59 6869.53 
1209 0.6998 0.6998 0 0.000751715 0.000751715 8.02414e-06 31.2823 4961.65 6588.03 
1249 0.53 0.53 0 0.000838164 0.000838164 -1.84383e-05 22.1853 3873.93 5405.48 
10 0.1246 0.1246 0 0.000538194 0.000538194 3.0947e-06 105.78 16564.6 25241.4 
50 9.5308 9.5308 0 0.0401232 0.0401232 0.000109415 401.232 29490.3 40828.2 
90 10.2496 10.2496 0 0.0425126 0.0425126 2.26085e-05 425.126 26423.4 36509.2 
130 10.5892 10.5892 0 0.0437482 0.0437482 5.95426e-06 437.482 25763.4 35724.6 
170 10.714 10.714 0 0.0441482 0.0441482 -1.21247e-05 441.482 25155.8 35124.5 
210 10.6066 10.6066 0 0.0440295 0.0440295 1.86763e-05 440.295 26841.7 36174.4 
250 10.134 10.134 0 0.0420999 0.0420999 0.000123622 420.999 27068.4 38177.6 
290 9.1806 9.1806 0 0.0389608 0.0389608 -0.000120499 389.608 30847.6 42952.2 
330 0.0336 0.0336 0 7.16513e-05 7.16513e-05 2.00947e-06 26.4701 3116.1 5357.22 
370 0.6518 0.6518 0 0.000820872 0.000820872 2.64851e-05 29.3369 4970.37 6685.61 
410 0.7614 0.7614 0 0.000775077 0.000775077 -1.43705e-05 34.1555 5015.56 6705.5 
450 0.837 0.837 0 0.000677101 0.000677101 -3.54294e-05 36.8552 5079.44 6946.5 
490 0.8652 0.8652 0 0.000630547 0.000630547 -5.77416e-05 37.933 4732.69 6522.3 
530 0.9066 0.9066 0 0.000652957 0.000652957 -4.456e-06 40.0277 4996.28 6817.35 
570 0.911 0.911 0 0.00073063 0.00073063 -2.39877e-05 40.1414 4807.3 6529.74 
610 0.7998 0.7998 0 0.000714091 0.000714091 -5.80838e-05 35.0474 4433.09 5913.81 
650 0.0626 0.0626 0 -0.000225436 -0.000225436 9.56402e-06 2.25436 130.983 233.782 
690 0.1344 0.1344 0 -0.000549923 -0.000549923 8.85045e-06 5.49923 411.158 602.671 
730 0.1894 0.1894 0 -0.00078583 -0.00078583 -6.29261e-06 7.8583 666.797 1004.79 
770 0.2062 0.2062 0 -0.000893401 -0.000893401 -1.71517e-05 8.93401 705.855 986.046 
810 0.2166 0.2166 0 -0.000929081 -0.000929081 1.87635e-06 9.29081 718.84 1032.35 
850 0.1956 0.1956 0 -0.000842419 -0.000842419 -4.32485e-06 8.42419 576.885 886.966 
890 0.147 0.147 0 -0.000618667 -0.000618667 -2.49381e-06 6.18667 383.638 531.562 
930 0.0748 0.0748 0 -0.000283336 -0.000283336 7.82614e-07 2.83336 270.554 422.756 
970 0.7432 0.7432 0 0.00080688 0.00080688 4.25877e-06 32.7232 4585.44 6110.15 
1010 0.8894 0.8894 0 0.000689604 0.000689604 5.04559e-07 38.5238 4561.37 6496.61 
1050 0.9232 0.9232 0 0.000611904 0.000611904 1.42173e-05 40.7892 4610.74 6556.97 
1090 0.892 0.892 0 0.000656471 0.000656471 -2.05948e-05 39.399 5191.21 6943 
1130 0.8542 0.8542 0 0.000703327 0.000703327 1.66907e-06 37.7295 5142.71 6894.22 
1170 0.7926 0.7926 0 0.000716525 0.000716525 -1.08427e-05 35.1905 5259.88 7163.27 
1210 0.6986 0.6986 0 0.000803666 0.000803666 -1.00189e-05 31.0538 4991.23 6617.15 
1250 0.54 0.54 0 0.000846834 0.000846834 2.23595e-05 22.4909 4134.95 5711.26 
11 0.1338 0.1338 0 0.000608595 0.000608595 2.3614e-06 118.108 18206.9 25722.6 
51 9.5604 9.5604 0 0.0400834 0.0400834 -2.45986e-05 400.834 29655 40765.5 
91 10.4286 10.4286 0 0.0431314 0.0431314 7.58926e-05 431.314 26146.1 36428.6 
131 10.7162 10.7162 0 0.0441985 0.0441985 -3.44535e-05 441.985 26065.7 36021.1 
171 10.7456 10.7456 0 0.0441351 0.0441351 -4.693e-05 441.351 24760.8 34230.7 
211 10.5666 10.5666 0 0.0437486 0.0437486 -6.93817e-05 437.486 25598.1 35912.1 
251 10.2624 10.2624 0 0.0427971 0.0427971 -6.82571e-05 427.971 27715.3 38797 
291 9.0576 9.0576 0 0.0382666 0.0382666 6.49157e-05 382.666 29986.1 41204.2 
331 0.027 0.027 0 6.03583e-05 6.03583e-05 -7.14568e-07 21.1367 4411.94 6059.4 
371 0.667 0.667 0 0.000844289 0.000844289 1.21646e-06 29.8135 5150.24 7093.4 
411 0.767 0.767 0 0.000761471 0.000761471 1.56843e-05 33.9635 5293.02 7005.69 
451 0.8576 0.8576 0 0.000721351 0.000721351 4.78404e-05 37.8511 5255.31 7167 
491 0.8874 0.8874 0 0.00066305 0.00066305 4.38451e-05 38.9979 5218.23 7029.34 
531 0.8808 0.8808 0 0.000625074 0.000625074 -4.64112e-05 38.9755 4798.37 6397.08 
571 0.8812 0.8812 0 0.000609674 0.000609674 5.52372e-05 38.9971 4840.8 6582.87 
611 0.788 0.788 0 0.000725297 0.000725297 4.34135e-06 34.3013 4736.35 6462.64 
651 0.0626 0.0626 0 -0.000227023 -0.000227023 -1.75097e-06 2.27023 117.813 251.061 
691 0.1404 0.1404 0 -0.000567668 -0.000567668 -1.10436e-05 5.67668 494.823 805.8 
731 0.1656 0.1656 0 -0.000680988 -0.000680988 -7.23769e-06 6.80988 590.711 816.799 
771 0.216 0.216 0 -0.000943458 -0.000943458 -9.55205e-06 9.43458 801.32 1151.01 
811 0.216 0.216 0 -0.000914746 -0.000914746 9.59562e-06 9.14746 702.744 1079.88 
851 0.191 0.191 0 -0.000822151 -0.000822151 -3.43322e-06 8.22151 576.772 956.843 
891 0.1486 0.1486 0 -0.000629998 -0.000629998 1.46558e-05 6.29998 566.669 836.24 
931 0.0806 0.0806 0 -0.000306481 -0.000306481 1.0848e-05 3.06481 235.505 415.613 
971 0.7358 0.7358 0 0.000822562 0.000822562 2.41645e-05 32.56 4303.59 5805.49 
1011 0.869 0.869 0 0.000658967 0.000658967 1.38353e-05 38.154 4390.51 6015.86 
1051 0.896 0.896 0 0.000608267 0.000608267 1.28858e-05 38.6705 4560.71 6355.95 
1091 0.8936 0.8936 0 0.000648978 0.000648978 1.85513e-05 39.3929 5220.79 7059.55 
1131 0.867 0.867 0 0.000685122 0.000685122 -4.76288e-05 38.1879 5014.78 6773.53 
1171 0.789 0.789 0 0.000728499 0.000728499 -2.70231e-05 35.2138 5142.71 6723.41 
1211 0.7034 0.7034 0 0.000793477 0.000793477 -5.29089e-05 31.5732 4877.52 6490.25 
1251 0.5326 0.5326 0 0.000863201 0.000863201 1.56189e-05 22.0091 4042.61 5498.39 
12 0.1718 0.1718 0 0.000772475 0.000772475 2.02767e-05 149.318 25821.9 35919.5 
52 9.5054 9.5054 0 0.0399658 0.0399658 3.03041e-05 399.658 29434 40981.8 
92 10.302 10.302 0 0.042697 0.042697 7.51643e-05 426.97 26411 36348.5 
132 10.6598 10.6598 0 0.0439665 0.0439665 -1.35395e-05 439.665 25875.5 36190.1 
172 10.6744 10.6744 0 0.043996 0.043996 -4.48822e-05 439.96 24130.1 33567.5 
212 10.6722 10.6722 0 0.044116 0.044116 -0.0001035 441.16 25922.2 36134 
252 10.1474 10.1474 0 0.0422663 0.0422663 -5.51812e-05 422.663 27509.8 37684.3 
292 9.055 9.055 0 0.0381629 0.0381629 5.9799e-05 381.629 30072.4 42220.5 
332 0.4872 0.4872 0 0.000839362 0.000839362 -1.24053e-05 18.624 2852.82 4455.12 
372 0.6604 0.6604 0 0.000848809 0.000848809 -3.21872e-06 29.2132 4879.26 6602.32 
412 0.787 0.787 0 0.00074942 0.00074942 3.60383e-05 34.8814 5219.16 7033.36 
452 0.8538 0.8538 0 0.000719176 0.000719176 -1.11525e-05 38.0915 5244.73 7010.43 
492 0.8806 0.8806 0 0.000703782 0.000703782 3.73264e-05 38.7162 5243.44 7262.88 
532 0.9178 0.9178 0 0.00068808 0.00068808 -4.13123e-05 40.2887 5150.89 7080.77 
572 0.9048 0.9048 0 0.000603993 0.000603993 4.41613e-05 39.8718 5117.05 6895.25 
612 0.7832 0.7832 0 0.000715298 0.000715298 -1.57833e-05 34.2394 4295.54 5709.99 
652 0.0618 0.0618 0 -0.000222717 -0.000222717 1.47303e-06 2.22717 199.032 326.872 
692 0.1424 0.1424 0 -0.000598333 -0.000598333 -5.49359e-06 5.98333 443.538 644.023 
732 0.1868 0.1868 0 -0.000800828 -0.000800828 1.31814e-05 8.00828 589.385 913.152 