ITEM: TIMESTEP
25000
ITEM: NUMBER OF SURFS
1224
ITEM: BOX BOUNDS oo rr pp
0 0.3
0 0.3
-0.5 0.5
ITEM: SURFS id f_4[1] f_4[2] f_4[3] f_4[4] f_4[5] f_4[6] f_4[7] f_4[8] f_4[9] 
1 0.1824 0.1824 0 0.00378013 0.00378013 -4.52773e-05 148.555 19416.9 23078.2 
41 9.5988 9.5988 0 0.392649 0.392649 8.35937e-05 3926.49 210972 305314 
81 10.4904 10.4904 0 0.425541 0.425541 -0.00040226 4255.41 195208 282861 
121 10.7048 10.7048 0 0.432063 0.432063 0.000459836 4320.63 185391 271129 
161 10.8224 10.8224 0 0.437851 0.437851 0.000737039 4378.51 183472 265480 
201 10.9352 10.9352 0 0.441139 0.441139 -0.00125357 4411.39 181441 264647 
241 10.5304 10.5304 0 0.42641 0.42641 0.000743776 4264.1 190691 282065 
281 9.6054 9.6054 0 0.392287 0.392287 -0.000983249 3922.87 210513 299388 
321 0.2182 0.2182 0 0.00516736 0.00516736 -0.000245378 170.677 22873.1 26822.6 
361 0.5104 0.5104 0 0.00275554 0.00275554 0.000179415 205.057 10483.6 13541.3 
401 0.645 0.645 0 0.00221285 0.00221285 -0.000243727 258.441 8831.69 11352 
441 0.7632 0.7632 0 0.00176132 0.00176132 -2.18027e-05 303.098 11990.1 16577.4 
481 0.8502 0.8502 0 0.00184341 0.00184341 0.000476662 337.441 10906.2 14363.9 
521 0.892 0.892 0 0.00169297 0.00169297 0.000292247 354.48 11470.5 14500.8 
561 0.905 0.905 0 0.00188721 0.00188721 0.000516287 363.186 10734.6 15337.8 
601 0.7722 0.7722 0 0.00307336 0.00307336 -0.000107841 306.416 11716 16794.9 
641 0.2026 0.2026 0 -0.00801295 -0.00801295 3.34782e-06 80.1295 334.129 663.234 
681 0.2216 0.2216 0 -0.00855747 -0.00855747 -5.33991e-05 85.5747 982.352 1305.77 
721 0.2284 0.2284 0 -0.00891505 -0.00891505 8.80854e-05 89.1505 2261.27 3422.23 
761 0.2504 0.2504 0 -0.0099418 -0.0099418 2.81514e-07 99.418 3069.47 4016.94 
801 0.248 0.248 0 -0.0098664 -0.0098664 -0.000173162 98.664 2887.74 3925.47 
841 0.2254 0.2254 0 -0.00890061 -0.00890061 5.8305e-05 89.0061 2050.81 3154.97 
881 0.2284 0.2284 0 -0.0089182 -0.0089182 -4.77296e-05 89.182 375.486 1201.33 
921 0.0426 0.0426 0 -0.00148889 -0.00148889 2.4571e-05 32.5847 1297.74 1994.63 
961 0.81 0.81 0 0.00225677 0.00225677 -0.000314969 323.309 12734.5 15996.9 
1001 0.8696 0.8696 0 0.00175045 0.00175045 -0.000293126 343.838 10021.3 15173.6 
1041 0.8766 0.8766 0 0.00182036 0.00182036 -2.49618e-05 344.791 11223.2 15662.4 
1081 0.807 0.807 0 0.00194583 0.00194583 -1.05785e-05 323.741 10052.5 14274 
1121 0.7342 0.7342 0 0.00143171 0.00143171 -6.29736e-05 289.349 10014.5 13441 
1161 0.5988 0.5988 0 0.00227187 0.00227187 0.000270705 237.337 10152.9 12718.6 
1201 0.4934 0.4934 0 0.00353265 0.00353265 -0.000204045 196.287 11424.2 15605.5 
2 0.2254 0.2254 0 0.00520864 0.00520864 0.000189252 178.222 21962 25287.2 
42 9.657 9.657 0 0.395367 0.395367 -0.000721563 3953.67 211393 308843 
82 10.5226 10.5226 0 0.426561 0.426561 -9.82137e-06 4265.61 196284 284134 
122 10.8736 10.8736 0 0.439793 0.439793 0.00156845 4397.93 181963 269498 
162 10.9466 10.9466 0 0.440498 0.440498 -0.00055592 4404.98 175683 261382 
202 10.576 10.576 0 0.428139 0.428139 0.000133034 4281.39 186780 272158 
242 10.4018 10.4018 0 0.422908 0.422908 0.000508809 4229.08 191230 276974 
282 9.4302 9.4302 0 0.386719 0.386719 0.00124093 3867.19 217327 306852 
322 0.1896 0.1896 0 0.00384926 0.00384926 1.74068e-05 151.752 21581.7 24239.6 
362 0.5536 0.5536 0 0.00268696 0.00268696 5.46475e-05 222.122 9533.09 13596.2 
402 0.6696 0.6696 0 0.00208035 0.00208035 1.38388e-05 266.478 9381.2 12962.7 
442 0.7756 0.7756 0 0.00160215 0.00160215 -0.000389229 307.016 10554.5 14873.7 
482 0.8356 0.8356 0 0.00197529 0.00197529 0.000112139 330.833 11637.3 16092.8 
522 0.9002 0.9002 0 0.00199154 0.00199154 0.000194107 357.977 11535.8 15564.8 
562 0.8886 0.8886 0 0.00225513 0.00225513 -0.000212838 352.385 9888.35 13638.7 
602 0.7628 0.7628 0 0.00339997 0.00339997 -7.2787e-05 305.496 12510.9 16810.4 
642 0.2188 0.2188 0 -0.00836781 -0.00836781 0.000134747 83.6781 1341.12 2104.42 
682 0.2238 0.2238 0 -0.00875856 -0.00875856 -8.76057e-05 87.5856 1235.35 1988.8 
722 0.2292 0.2292 0 -0.00921266 -0.00921266 -0.000242873 92.1266 2056.89 3178.14 
762 0.2546 0.2546 0 -0.0101763 -0.0101763 -6.6221e-05 101.763 2621.32 4067 
802 0.2388 0.2388 0 -0.00949078 -0.00949078 -0.000207181 94.9078 1736.9 3121.42 
842 0.2258 0.2258 0 -0.00887076 -0.00887076 2.30925e-05 88.7076 3380.03 4003.97 
882 0.223 0.223 0 -0.00873865 -0.00873865 3.28412e-05 87.3865 313.648 805.174 
922 0.0362 0.0362 0 -0.00115734 -0.00115734 -2.02485e-05 27.8802 796.056 979.362 
962 0.8706 0.8706 0 0.00274959 0.00274959 0.000503221 345.233 12136.6 16436.3 
1002 0.8928 0.8928 0 0.00219014 0.00219014 0.000320717 355.682 11174.6 14435.9 
1042 0.8544 0.8544 0 0.00156052 0.00156052 -0.000414666 342.108 9411.84 14027.2 
1082 0.8072 0.8072 0 0.00196675 0.00196675 0.000339559 322.237 9245.55 14805.1 
1122 0.7296 0.7296 0 0.00200115 0.00200115 -0.000205457 288.27 9441 13571.8 
1162 0.6114 0.6114 0 0.00194486 0.00194486 -0.000240179 244.156 11229.5 14972.2 
1202 0.5056 0.5056 0 0.00347046 0.00347046 -0.000282638 205.049 12050.3 15210.9 
3 0.3178 0.3178 0 0.00781541 0.00781541 0.000316093 250.873 26441.8 33579.2 
43 9.5224 9.5224 0 0.390823 0.390823 -0.00207758 3908.23 210571 305428 
83 10.5232 10.5232 0 0.426146 0.426146 0.000487443 4261.46 189483 277949 
123 10.8138 10.8138 0 0.435738 0.435738 7.00258e-05 4357.38 182978 274818 
163 10.8852 10.8852 0 0.439444 0.439444 0.00128851 4394.44 177936 262227 
203 10.8746 10.8746 0 0.43969 0.43969 0.000379049 4396.9 182672 268987 
243 10.4166 10.4166 0 0.421959 0.421959 -1.98896e-05 4219.59 191514 277457 
283 9.585 9.585 0 0.391528 0.391528 -0.000710709 3915.28 217554 309593 
323 0.366 0.366 0 0.00715776 0.00715776 0.000125208 145.932 20845.8 24303.7 
363 0.5272 0.5272 0 0.00259537 0.00259537 -9.8214e-05 212.114 9826.58 14595.8 
403 0.6664 0.6664 0 0.00175605 0.00175605 -2.35161e-05 267.628 10370.2 15682.7 
443 0.7724 0.7724 0 0.0022001 0.0022001 0.00041558 307.018 10121.2 14561.1 
483 0.8616 0.8616 0 0.00182109 0.00182109 0.000165048 344.437 11372.1 15294.3 
523 0.878 0.878 0 0.00171709 0.00171709 -2.62245e-05 347.164 11963.4 15641 
563 0.9008 0.9008 0 0.00196539 0.00196539 -0.000236675 354.285 11792 16596.1 
603 0.747 0.747 0 0.00330304 0.00330304 -6.84099e-05 299.501 11049.5 15440.4 
643 0.2002 0.2002 0 -0.00784828 -0.00784828 -0.000102547 78.4828 1091.24 1509.24 
683 0.233 0.233 0 -0.00915938 -0.00915938 -3.41134e-05 91.5938 2252.01 2659.69 
723 0.2252 0.2252 0 -0.00894907 -0.00894907 5.99827e-06 89.4907 1598.16 3141.79 
763 0.2522 0.2522 0 -0.0100381 -0.0100381 0.00016614 100.381 2673.83 4547.62 
803 0.251 0.251 0 -0.0100091 -0.0100091 8.87755e-05 100.091 3247.05 5069.51 
843 0.232 0.232 0 -0.00916274 -0.00916274 2.89499e-05 91.6274 1010.36 1930.76 
883 0.2262 0.2262 0 -0.008697 -0.008697 -3.21124e-05 86.97 1274.49 2515.33 
923 0.043 0.043 0 -0.00111412 -0.00111412 -0.000112315 30.114 1933.65 2442.23 
963 0.8734 0.8734 0 0.00262007 0.00262007 -2.98997e-05 344.9 12707 16357.4 
1003 0.8892 0.8892 0 0.002215 0.002215 2.57969e-05 354.127 10930 15695.2 
1043 0.8818 0.8818 0 0.00227354 0.00227354 -0.000316652 348.374 10320.6 14299.6 
1083 0.8382 0.8382 0 0.00253413 0.00253413 -5.38029e-05 333.253 9590.77 14230.2 
1123 0.7248 0.7248 0 0.0022703 0.0022703 -3.39831e-05 292.177 10331.2 14234.9 
1163 0.6244 0.6244 0 0.00230017 0.00230017 0.000373704 251.121 10075.7 12859.3 
1203 0.4764 0.4764 0 0.00379681 0.00379681 -0.000179702 194.392 11327.6 14311.8 
4 0.4574 0.4574 0 0.0128944 0.0128944 0.000122372 368.701 35257.3 43394.7 
44 9.5992 9.5992 0 0.392319 0.392319 0.000787625 3923.19 209213 301027 
84 10.4006 10.4006 0 0.420086 0.420086 -0.000148078 4200.86 191712 275853 
124 11.0082 11.0082 0 0.443907 0.443907 -0.000347993 4439.07 191066 278209 
164 10.907 10.907 0 0.439338 0.439338 0.000690782 4393.38 179914 264702 
204 10.7338 10.7338 0 0.432841 0.432841 -0.00096632 4328.41 185590 273431 
244 10.4764 10.4764 0 0.424726 0.424726 -0.000573977 4247.26 197060 281845 
284 9.3974 9.3974 0 0.384644 0.384644 0.000688015 3846.44 215514 302929 
324 0.4454 0.4454 0 0.00818654 0.00818654 -8.77895e-05 173.866 25407.1 28301.4 
364 0.5382 0.5382 0 0.00284384 0.00284384 4.87141e-05 217.17 11067.2 14180.9 
404 0.6596 0.6596 0 0.0025629 0.0025629 6.24669e-05 264.611 11091.7 13378.9 
444 0.7908 0.7908 0 0.00208571 0.00208571 0.000356418 314.968 11106.7 14456.3 
484 0.8494 0.8494 0 0.00218119 0.00218119 -0.000119584 335.549 9804.58 13972.6 
524 0.8856 0.8856 0 0.00171639 0.00171639 4.43145e-05 354.762 11412.4 14495.3 
564 0.8718 0.8718 0 0.00240212 0.00240212 0.00030062 345.492 10089.2 13891.8 
604 0.7548 0.7548 0 0.00283756 0.00283756 9.128e-05 305.137 11511.3 15377.4 
644 0.2152 0.2152 0 -0.00837024 -0.00837024 -0.000115032 83.7024 1690.77 2708.49 
684 0.2274 0.2274 0 -0.00865068 -0.00865068 -5.86557e-05 86.5068 615.651 1026.77 
724 0.2324 0.2324 0 -0.00944925 -0.00944925 -0.000146259 94.4925 3284.02 4566.83 
764 0.2448 0.2448 0 -0.00976726 -0.00976726 -5.65848e-05 97.6726 3526.4 4378.21 
804 0.2508 0.2508 0 -0.0100587 -0.0100587 -0.000216795 100.587 3612.81 5205.5 
844 0.2276 0.2276 0 -0.00903605 -0.00903605 -0.000150201 90.3605 3381.8 4121.77 
884 0.2246 0.2246 0 -0.00879204 -0.00879204 0.000135535 87.9204 1868.06 2690.51 
924 0.0528 0.0528 0 -0.00122612 -0.00122612 -7.52973e-05 36.9459 1410.09 2256.68 
964 0.8766 0.8766 0 0.0024721 0.0024721 0.000383681 346.041 9771.39 13799.1 
1004 0.8766 0.8766 0 0.00244759 0.00244759 -6.10901e-05 348.799 10327.5 14529.5 
1044 0.859 0.859 0 0.00204013 0.00204013 -0.000140925 343.987 10925.9 15539.7 
1084 0.832 0.832 0 0.00228934 0.00228934 0.000294056 330.116 11457.2 15674.8 
1124 0.7088 0.7088 0 0.00194965 0.00194965 -0.000125612 282.646 11422.4 14536.3 
1164 0.5924 0.5924 0 0.00256051 0.00256051 -4.37318e-06 241.695 9630.16 11724.4 
1204 0.489 0.489 0 0.00388031 0.00388031 -5.20206e-05 198.521 12472.1 16310.3 
5 0.5938 0.5938 0 0.0180643 0.0180643 9.58902e-05 478.22 48599.6 58079.4 
45 9.791 9.791 0 0.400017 0.400017 0.000395759 4000.17 213333 309008 
85 10.6802 10.6802 0 0.431777 0.431777 -0.000435238 4317.77 199023 288819 
125 10.8052 10.8052 0 0.436223 0.436223 5.65194e-05 4362.23 184738 270422 
165 10.8674 10.8674 0 0.43819 0.43819 -0.00182231 4381.9 185382 270700 
205 10.9066 10.9066 0 0.441069 0.441069 0.00119822 4410.69 191545 281593 
245 10.5674 10.5674 0 0.428767 0.428767 -0.000680978 4287.67 203625 294214 
285 9.3694 9.3694 0 0.382918 0.382918 0.000557045 3829.18 209091 298785 
325 0.4848 0.4848 0 0.00791848 0.00791848 -7.48898e-05 190.732 24615.4 27562.6 
365 0.5734 0.5734 0 0.00258515 0.00258515 -0.000375531 228.489 9825.16 13335.5 
405 0.6522 0.6522 0 0.00218687 0.00218687 -3.10447e-05 260.762 9004.22 13008.4 
445 0.78 0.78 0 0.00148205 0.00148205 -0.00012341 310.538 12706.5 17301.4 
485 0.844 0.844 0 0.00222421 0.00222421 -0.000162605 334.022 12006.1 17514.7 
525 0.8838 0.8838 0 0.00258429 0.00258429 0.000169871 354.378 12134.3 15438.7 
565 0.9064 0.9064 0 0.0026803 0.0026803 7.80953e-05 366.233 11737.7 15064.9 
605 0.7544 0.7544 0 0.00341584 0.00341584 -0.000360009 300.471 11677.3 16380.6 
645 0.2204 0.2204 0 -0.00863705 -0.00863705 4.78454e-05 86.3705 1789.89 1628.67 
685 0.2376 0.2376 0 -0.00912775 -0.00912775 -0.000177458 91.2775 2115.95 2711.7 
725 0.2366 0.2366 0 -0.0092294 -0.0092294 0.000118469 92.294 1755.92 3928.44 
765 0.2486 0.2486 0 -0.00995508 -0.00995508 -0.000147754 99.5508 3502.36 5252.25 
805 0.2546 0.2546 0 -0.0101001 -0.0101001 1.64407e-05 101.001 3972.69 6009.39 
845 0.226 0.226 0 -0.00907471 -0.00907471 -2.77533e-05 90.7471 2046.44 2726.78 
885 0.2268 0.2268 0 -0.00861089 -0.00861089 -0.000100896 86.1089 1134.1 1226.99 
925 0.0596 0.0596 0 -0.00125517 -0.00125517 1.2708e-05 42.4135 1798.64 2274.38 
965 0.8754 0.8754 0 0.00263441 0.00263441 -0.000248679 347.427 10223.8 14501.6 
1005 0.9122 0.9122 0 0.00216415 0.00216415 0.000127824 358.676 11731.8 15181.5 
1045 0.8656 0.8656 0 0.00208892 0.00208892 -0.000189392 345.953 11241.7 14550.4 
1085 0.8086 0.8086 0 0.00226515 0.00226515 0.000137169 316.761 10633.4 13307 
1125 0.7434 0.7434 0 0.00202968 0.00202968 -0.000136547 294.098 10802.1 14319 
1165 0.6126 0.6126 0 0.00242487 0.00242487 0.000125812 245.644 9365.99 12416.1 
1205 0.4694 0.4694 0 0.00381012 0.00381012 0.000124669 188.62 12272.1 14472.9 
6 0.7844 0.7844 0 0.025668 0.025668 -1.52484e-05 640.874 69715.2 85851.5 
46 9.6902 9.6902 0 0.39543 0.39543 -0.00137834 3954.3 215268 305716 
86 10.5646 10.5646 0 0.427016 0.427016 -0.000274161 4270.16 193188 282950 
126 10.9256 10.9256 0 0.440693 0.440693 2.57615e-05 4406.93 181768 263809 
166 10.9522 10.9522 0 0.441308 0.441308 0.000602119 4413.08 180663 262908 
206 10.8698 10.8698 0 0.439985 0.439985 -0.000562342 4399.85 192364 276843 
246 10.382 10.382 0 0.42141 0.42141 -0.000174557 4214.1 196006 286837 
286 9.2406 9.2406 0 0.377858 0.377858 -0.00135215 3778.58 212326 301453 
326 0.4822 0.4822 0 0.00749081 0.00749081 -0.000192903 189.88 21343.5 24503.4 
366 0.5304 0.5304 0 0.00254874 0.00254874 2.96715e-05 214.701 8420.66 12196.3 
406 0.673 0.673 0 0.00231748 0.00231748 0.000166515 268.851 10210.3 14758.2 
446 0.7806 0.7806 0 0.00219054 0.00219054 0.000290173 313.682 11084.2 14417.2 
486 0.8412 0.8412 0 0.00227881 0.00227881 0.0003305 336.26 10968.4 16396.8 
526 0.8976 0.8976 0 0.00205216 0.00205216 2.0351e-05 355.794 10944.6 16276.6 
566 0.9228 0.9228 0 0.00205363 0.00205363 -7.36529e-05 362.34 12669.3 16448.7 
606 0.719 0.719 0 0.00351534 0.00351534 0.000128277 288.655 10523.8 15758.3 
646 0.2128 0.2128 0 -0.00839896 -0.00839896 -8.96382e-05 83.9896 1550.57 2341.13 
686 0.2266 0.2266 0 -0.00894521 -0.00894521 -9.72343e-05 89.4521 845.79 1732.7 
726 0.2308 0.2308 0 -0.00913354 -0.00913354 -5.63351e-05 91.3354 2931.24 4468.93 
766 0.2536 0.2536 0 -0.0100641 -0.0100641 1.13714e-05 100.641 4521 6141.25 
806 0.2228 0.2228 0 -0.00895058 -0.00895058 0.000208498 89.5058 3207.03 4585.93 
846 0.2142 0.2142 0 -0.008511 -0.008511 0.000194557 85.11 2070.08 2945.94 
886 0.2376 0.2376 0 -0.00909903 -0.00909903 -9.59788e-05 90.9903 1476.09 1806.01 
926 0.072 0.072 0 -0.00137108 -0.00137108 -5.38055e-05 54.5882 3934.15 4615.44 
966 0.8464 0.8464 0 0.00233877 0.00233877 2.32884e-06 335.448 11632.2 16683.1 
1006 0.9292 0.9292 0 0.00203443 0.00203443 0.000273226 367.559 11911 15414.9 
1046 0.8702 0.8702 0 0.00153607 0.00153607 0.000245201 344.529 10799.2 16002.5 
1086 0.8164 0.8164 0 0.00238129 0.00238129 -0.00018703 320.387 9208.54 13114.9 
1126 0.7262 0.7262 0 0.00233312 0.00233312 0.000160018 286.671 8975.52 12192 
1166 0.6024 0.6024 0 0.0024238 0.0024238 -0.000236756 237.051 10675.5 13257.4 
1206 0.4506 0.4506 0 0.00359434 0.00359434 0.000356531 179.884 11349.3 13989 
7 0.9186 0.9186 0 0.0333325 0.0333325 5.75606e-05 780.177 87809.3 105506 
47 9.7478 9.7478 0 0.398687 0.398687 -0.000226439 3986.87 216785 315404 
87 10.662 10.662 0 0.431505 0.431505 -0.00100676 4315.05 200942 289098 
127 10.7294 10.7294 0 0.434158 0.434158 -0.000582111 4341.58 179222 266626 
167 11.0196 11.0196 0 0.444581 0.444581 -0.0013869 4445.81 185159 268764 
207 10.6944 10.6944 0 0.433876 0.433876 0.000227806 4338.76 192175 277619 
247 10.4022 10.4022 0 0.421379 0.421379 0.000316046 4213.79 188358 270305 
287 9.246 9.246 0 0.380913 0.380913 -0.000313973 3809.13 217195 308846 
327 0.481 0.481 0 0.0071235 0.0071235 -3.41372e-05 190.914 18671.4 21900.9 
367 0.55 0.55 0 0.00269267 0.00269267 -0.000210058 221.316 9970.5 12512.7 
407 0.6772 0.6772 0 0.00224117 0.00224117 -9.4766e-05 268.935 10506.2 14182.7 
447 0.7992 0.7992 0 0.00224655 0.00224655 -0.000484381 316.948 12437.4 17001.2 
487 0.8538 0.8538 0 0.00193819 0.00193819 0.000155204 337.301 9926.96 12225.4 
527 0.8854 0.8854 0 0.00178337 0.00178337 -5.78658e-05 354.89 9760.61 12517.9 
567 0.8788 0.8788 0 0.00240992 0.00240992 0.000223385 348.88 10280.2 15117.6 
607 0.7146 0.7146 0 0.00372635 0.00372635 4.73437e-05 286.784 10425.2 13326 
647 0.2156 0.2156 0 -0.00838616 -0.00838616 3.24329e-06 83.8616 658.078 1395.77 
687 0.2238 0.2238 0 -0.00896806 -0.00896806 0.000142259 89.6806 1134.96 1695.79 
727 0.233 0.233 0 -0.00933424 -0.00933424 -0.00014115 93.3424 2529.77 3236.94 
767 0.2574 0.2574 0 -0.0102752 -0.0102752 0.000115966 102.752 3119.39 5449.98 
807 0.2406 0.2406 0 -0.00968189 -0.00968189 8.79728e-05 96.8189 2529 4001.89 
847 0.2258 0.2258 0 -0.00890302 -0.00890302 -1.79952e-05 89.0302 2729.18 3569.97 
887 0.2256 0.2256 0 -0.00890018 -0.00890018 0.000121069 89.0018 1482.83 1436.01 
927 0.0774 0.0774 0 -0.00115991 -0.00115991 1.11577e-05 59.0068 3153.67 3468.11 
967 0.8968 0.8968 0 0.00224398 0.00224398 -0.000138066 353.027 11915.3 16650.3 
1007 0.8736 0.8736 0 0.00166412 0.00166412 -0.00028822 346.152 10964.3 14497.9 
1047 0.8706 0.8706 0 0.0019477 0.0019477 9.94065e-05 348.725 9771.8 14440.7 
1087 0.823 0.823 0 0.00219032 0.00219032 -0.000172016 327.736 9654.99 14239.1 
1127 0.726 0.726 0 0.00212297 0.00212297 -0.000321127 286.244 8990.31 12687.8 
1167 0.599 0.599 0 0.00232006 0.00232006 -7.99761e-05 236.63 9603.91 13956.6 
1207 0.5008 0.5008 0 0.00423144 0.00423144 -0.000340693 200.123 12690.1 15925.1 
8 0.9178 0.9178 0 0.035098 0.035098 -0.000102814 776.855 89064.7 111239 
48 9.658 9.658 0 0.396089 0.396089 0.000384688 3960.89 204722 293678 
88 10.5782 10.5782 0 0.427302 0.427302 -0.000448338 4273.02 195422 281875 
128 10.8894 10.8894 0 0.438678 0.438678 -0.000580993 4386.78 173741 260563 
168 10.995 10.995 0 0.442237 0.442237 -0.000288449 4422.37 181124 263167 
208 10.7394 10.7394 0 0.434388 0.434388 0.000692433 4343.88 193255 279274 
248 10.4004 10.4004 0 0.422498 0.422498 0.000954538 4224.98 196029 286395 
288 9.262 9.262 0 0.382582 0.382582 -0.000665817 3825.82 220042 313636 
328 0.478 0.478 0 0.00628591 0.00628591 0.000240528 187.876 18306 22615.6 
368 0.5514 0.5514 0 0.0023465 0.0023465 4.91641e-05 222.328 10818.6 13975.2 
408 0.6926 0.6926 0 0.00229143 0.00229143 -3.66975e-05 275.533 10817.9 14113.3 
448 0.7908 0.7908 0 0.00139892 0.00139892 0.000149483 312.611 10444.4 15534.5 
488 0.8456 0.8456 0 0.00204575 0.00204575 6.20098e-05 336.26 10856 15312.7 
528 0.8706 0.8706 0 0.00241138 0.00241138 -1.28555e-06 346.718 12285.7 15961.7 
568 0.8784 0.8784 0 0.00224661 0.00224661 -0.000705381 348.387 11066 14360.5 
608 0.6876 0.6876 0 0.00402548 0.00402548 -0.000183012 278.244 13629.6 16304.5 
648 0.2214 0.2214 0 -0.00860227 -0.00860227 0.000100245 86.0227 1115.1 2065.17 
688 0.2184 0.2184 0 -0.00851583 -0.00851583 -7.47648e-07 85.1583 2527.43 3356.52 
728 0.24 0.24 0 -0.00944037 -0.00944037 -7.58428e-05 94.4037 3372.41 5260.34 
768 0.253 0.253 0 -0.0100947 -0.0100947 0.000124521 100.947 3730.34 5542 
808 0.24 0.24 0 -0.00966644 -0.00966644 0.000102322 96.6644 3486.16 5331.27 
848 0.2316 0.2316 0 -0.00937021 -0.00937021 1.27936e-05 93.7021 1312.59 1886.68 
888 0.2208 0.2208 0 -0.00841809 -0.00841809 -6.55163e-05 84.1809 765.358 1597.41 
928 0.101 0.101 0 -0.0010407 -0.0010407 -3.73695e-05 77.7793 4569.07 4899.67 
968 0.872 0.872 0 0.00263053 0.00263053 -0.000224747 343.827 9963.23 13797 
1008 0.9006 0.9006 0 0.00197378 0.00197378 0.000131719 359.374 10493.7 13763.1 
1048 0.8762 0.8762 0 0.00201865 0.00201865 -7.52784e-05 345.544 11436.9 14845.1 
1088 0.8178 0.8178 0 0.00223051 0.00223051 -0.000344996 328.879 11973.5 15678.8 
1128 0.73 0.73 0 0.00170704 0.00170704 -2.8132e-05 288.976 10208 13255.8 
1168 0.5916 0.5916 0 0.00226683 0.00226683 0.000105116 236.104 11138.7 14689.7 
1208 0.4704 0.4704 0 0.00417738 0.00417738 4.36843e-06 190.096 13271.2 17577 
9 0.9646 0.9646 0 0.0372564 0.0372564 0.000250782 814.757 78968.3 102546 
49 9.9902 9.9902 0 0.407402 0.407402 0.00205379 4074.02 214578 311533 
89 10.7212 10.7212 0 0.432598 0.432598 -0.000938665 4325.98 198128 289228 
129 10.9758 10.9758 0 0.443844 0.443844 0.000486946 4438.44 183948 271980 
169 10.8216 10.8216 0 0.437022 0.437022 0.00160731 4370.22 182492 266575 
209 10.8602 10.8602 0 0.439679 0.439679 3.92477e-05 4396.79 189137 273515 
249 10.4938 10.4938 0 0.426895 0.426895 0.000358059 4268.95 200179 291462 
289 9.1766 9.1766 0 0.376104 0.376104 0.000513778 3761.04 215803 315936 
329 0.4554 0.4554 0 0.00596357 0.00596357 -0.00012029 181.349 19634 22780.7 
369 0.5432 0.5432 0 0.00263596 0.00263596 -2.59894e-05 217.036 8866.97 11690.6 
409 0.6754 0.6754 0 0.00220162 0.00220162 -0.000162503 270.59 10430.5 13492.8 
449 0.7896 0.7896 0 0.00191618 0.00191618 2.42411e-05 314.656 9932.85 13799.8 
489 0.839 0.839 0 0.00177178 0.00177178 -0.000121507 333.784 11871.4 16506.2 
529 0.8834 0.8834 0 0.00185947 0.00185947 0.000241294 352.663 12452 16118.7 
569 0.8972 0.8972 0 0.00246377 0.00246377 -0.000129081 359.342 12071.8 16469 
609 0.6586 0.6586 0 0.00391234 0.00391234 0.000179877 265.91 10448.2 14736.1 
649 0.2144 0.2144 0 -0.00851084 -0.00851084 4.33195e-05 85.1084 731.875 1724.48 
689 0.2388 0.2388 0 -0.00926793 -0.00926793 -4.05217e-05 92.6793 2305.62 3124.11 
729 0.2318 0.2318 0 -0.00918403 -0.00918403 -0.000138146 91.8403 3508.02 5082.3 
769 0.2496 0.2496 0 -0.00999155 -0.00999155 0.000331705 99.9155 3840.82 6063.86 
809 0.2484 0.2484 0 -0.0100143 -0.0100143 -9.50697e-05 100.143 3560.34 5068.53 
849 0.2282 0.2282 0 -0.00897905 -0.00897905 5.05189e-05 89.7905 1973.41 2263.11 
889 0.2282 0.2282 0 -0.00874561 -0.00874561 -0.000102022 87.4561 1059.84 1163.37 
929 0.118 0.118 0 -0.000949681 -0.000949681 2.1704e-05 89.6537 3775.79 5394.45 
969 0.8796 0.8796 0 0.00213891 0.00213891 0.000176599 352.078 10401.5 15846 
1009 0.887 0.887 0 0.00184305 0.00184305 0.000301694 351.042 10961.4 15050.5 
1049 0.879 0.879 0 0.00225518 0.00225518 0.000142603 347.971 10768.9 14077.1 
1089 0.7892 0.7892 0 0.00180958 0.00180958 -0.00037261 316.661 11097.2 14337.3 
1129 0.732 0.732 0 0.00247031 0.00247031 -6.04057e-06 294.171 10736.3 13635.4 
1169 0.58 0.58 0 0.00229711 0.00229711 0.000147723 233.048 8979.98 11628.8 
1209 0.4822 0.4822 0 0.00418279 0.00418279 -0.000162018 192.575 14442.8 17648.9 
10 1.4654 1.4654 0 0.0587515 0.0587515 -0.000471124 1234.37 119303 147342 
50 9.7986 9.7986 0 0.400943 0.400943 0.000874113 4009.43 206663 301816 
90 10.5214 10.5214 0 0.427011 0.427011 5.78758e-05 4270.11 190405 274230 
130 10.7176 10.7176 0 0.433118 0.433118 -0.00107927 4331.18 183869 267715 
170 10.9364 10.9364 0 0.442407 0.442407 -0.00150232 4424.07 183447 267304 
210 10.7404 10.7404 0 0.436022 0.436022 0.000372635 4360.22 185215 273055 
250 10.2964 10.2964 0 0.417746 0.417746 -0.000897574 4177.46 195297 281407 
290 9.1192 9.1192 0 0.373981 0.373981 0.000552114 3739.81 215010 311009 
330 0.4718 0.4718 0 0.00578687 0.00578687 0.000230282 185.371 16227.7 19853.2 
370 0.5622 0.5622 0 0.00219517 0.00219517 4.94503e-05 223.482 11071.1 14434.8 
410 0.6628 0.6628 0 0.00191912 0.00191912 0.00013861 267.592 11039 13977.9 
450 0.8236 0.8236 0 0.00240616 0.00240616 0.000126959 326.847 10301.7 14496.6 
490 0.8694 0.8694 0 0.00197685 0.00197685 -6.99121e-06 343.985 9135.26 13041.7 
530 0.904 0.904 0 0.00146472 0.00146472 -7.23886e-05 361.546 11994.3 15721.1 
570 0.8814 0.8814 0 0.00245968 0.00245968 0.000223611 352.471 10592.5 15751 
610 0.648 0.648 0 0.00374032 0.00374032 -0.00018479 256.778 11038.6 14505.7 
650 0.2264 0.2264 0 -0.00866345 -0.00866345 1.30052e-06 86.6345 1020.88 1063.24 
690 0.2312 0.2312 0 -0.00898956 -0.00898956 -0.000102701 89.8956 2155 3065.33 
730 0.2442 0.2442 0 -0.00961521 -0.00961521 0.000182526 96.1521 2531.33 4043.06 
770 0.26 0.26 0 -0.010429 -0.010429 5.20403e-05 104.29 3781.53 5010.19 
810 0.2454 0.2454 0 -0.00971144 -0.00971144 0.000100683 97.1144 2805.12 4359.21 
850 0.2314 0.2314 0 -0.00907619 -0.00907619 -0.00019723 90.7619 2333.51 3200.31 
890 0.2286 0.2286 0 -0.00892482 -0.00892482 8.64341e-05 89.2482 1373.78 2074.55 
930 0.1492 0.1492 0 -0.000850862 -0.000850862 -3.6808e-05 118.16 7827.22 9711.26 
970 0.8834 0.8834 0 0.00223697 0.00223697 -0.000357591 351.182 12628.5 15623.5 
1010 0.8974 0.8974 0 0.00237472 0.00237472 0.000277912 354.878 10623.9 15185.7 
1050 0.8684 0.8684 0 0.0017173 0.0017173 3.37405e-05 344.372 9968.6 13961.8 
1090 0.804 0.804 0 0.00181465 0.00181465 0.00032666 321.415 12053.1 15611.3 
1130 0.6914 0.6914 0 0.00188942 0.00188942 0.000117281 278.701 9581.64 13638.4 
1170 0.58 0.58 0 0.00221365 0.00221365 0.000210574 233.19 9781.59 12686.2 
1210 0.4676 0.4676 0 0.004338 0.004338 5.10096e-05 187.643 12839.3 16560.6 
11 1.8472 1.8472 0 0.0758434 0.0758434 0.00019483 1550.32 149667 191601 
51 9.8308 9.8308 0 0.401684 0.401684 0.000785617 4016.84 209749 303483 
91 10.7608 10.7608 0 0.435161 0.435161 0.000212586 4351.61 196251 282606 
131 10.9592 10.9592 0 0.441834 0.441834 -0.000167993 4418.34 190256 268836 
171 11.0336 11.0336 0 0.443924 0.443924 4.02523e-05 4439.24 186800 267890 
211 10.8162 10.8162 0 0.438287 0.438287 -0.000680397 4382.87 187278 271938 
251 10.3706 10.3706 0 0.421047 0.421047 0.000207811 4210.47 184750 274981 
291 9.0248 9.0248 0 0.370341 0.370341 -0.0012792 3703.41 219663 312474 
331 0.4706 0.4706 0 0.00565737 0.00565737 -0.000138874 186.449 15786.6 18837.9 
371 0.5708 0.5708 0 0.00247813 0.00247813 1.96179e-05 229.977 8416.22 11456.2 
411 0.6804 0.6804 0 0.00224207 0.00224207 -0.000276225 274.143 8583.95 11761.5 
451 0.7814 0.7814 0 0.00189055 0.00189055 0.000288944 308.337 8175.19 11933.6 
491 0.8842 0.8842 0 0.0023436 0.0023436 0.000363723 352.89 11454.3 15737.5 
531 0.9022 0.9022 0 0.00210736 0.00210736 -4.98185e-05 357.269 11500.4 15564.1 
571 0.8956 0.8956 0 0.00162508 0.00162508 7.55919e-05 351.814 9448.15 13161.2 
611 0.634 0.634 0 0.00466846 0.00466846 -0.000380481 255.961 11886.7 15475 
651 0.2226 0.2226 0 -0.00867016 -0.00867016 -7.70163e-05 86.7016 1280.41 1362.05 
691 0.2276 0.2276 0 -0.00913013 -0.00913013 -4.44361e-05 91.3013 2213.07 3000.2 
731 0.2282 0.2282 0 -0.00930691 -0.00930691 5.15777e-06 93.0691 3626.71 4847.93 
771 0.2566 0.2566 0 -0.0102042 -0.0102042 -6.37125e-05 102.042 3190.79 4256.57 
811 0.2408 0.2408 0 -0.00951736 -0.00951736 5.17498e-05 95.1736 2732.36 4066.65 
851 0.2148 0.2148 0 -0.00852935 -0.00852935 -0.000126124 85.2935 2314.65 2829.18 
891 0.2212 0.2212 0 -0.00875702 -0.00875702 0.000194524 87.5702 917.866 1661.35 
931 0.1696 0.1696 0 -0.000330924 -0.000330924 -0.000123535 131.395 8401.32 8579.38 
971 0.9006 0.9006 0 0.00278683 0.00278683 -0.000103429 356.25 11983.3 16798.9 
1011 0.9096 0.9096 0 0.00215926 0.00215926 -5.30659e-05 362.819 12686.3 18240.2 
1051 0.8466 0.8466 0 0.00194518 0.00194518 0.000204281 336.91 10136.3 14586.8 
1091 0.8098 0.8098 0 0.00179022 0.00179022 0.00011795 324.079 9649.34 14167.6 
1131 0.7104 0.7104 0 0.00195392 0.00195392 0.00022695 285.99 9868.76 14047.1 
1171 0.594 0.594 0 0.00253226 0.00253226 5.19365e-05 237.336 8531.01 11378.6 
1211 0.473 0.473 0 0.00458803 0.00458803 -0.000110488 189.723 14455 17306 
12 1.8578 1.8578 0 0.0779006 0.0779006 -0.000262454 1577.88 139481 176277 
52 10.0632 10.0632 0 0.409508 0.409508 -0.000237208 4095.08 206372 303153 
92 10.564 10.564 0 0.428688 0.428688 0.000523212 4286.88 186907 276445 
132 10.866 10.866 0 0.437245 0.437245 -0.000228229 4372.45 186059 267705 
172 10.941 10.941 0 0.440704 0.440704 0.00016365 4407.04 186426 266301 
212 10.764 10.764 0 0.434177 0.434177 0.000764647 4341.77 190186 272822 
252 10.3406 10.3406 0 0.420717 0.420717 -0.00041537 4207.17 202324 293280 
292 8.8564 8.8564 0 0.364683 0.364683 -0.000205545 3646.83 221295 312925 
332 0.4548 0.4548 0 0.00517914 0.00517914 8.79793e-05 181.861 15237.5 19450.1 
372 0.5826 0.5826 0 0.00221098 0.00221098 0.000153075 230.259 9003.2 11933.3 
412 0.6918 0.6918 0 0.00228554 0.00228554 -3.19209e-05 277.072 9116.75 13709.2 
452 0.8036 0.8036 0 0.00211351 0.00211351 -0.000382926 321.722 11779 15361.3 
492 0.8488 0.8488 0 0.00200609 0.00200609 -0.000337136 338.739 10460.1 13125.1 
532 0.9326 0.9326 0 0.002238 0.002238 4.86803e-05 373.317 11442.1 16636.8 
572 0.8896 0.8896 0 0.00206501 0.00206501 -0.000132782 354.23 11956.7 15870 
612 0.5916 0.5916 0 0.00460697 0.00460697 7.83717e-05 238.231 14226.5 17037.6 
652 0.2206 0.2206 0 -0.0085952 -0.0085952 -0.00014314 85.952 1049.25 1377.6 
692 0.2274 0.2274 0 -0.00890644 -0.00890644 2.18869e-05 89.0644 2435.98 2671.37 
732 0.233 0.233 0 -0.00961229 -0.00961229 6.61512e-05 96.1229 3074.45 4359.03 
772 0.2562 0.2562 0 -0.0103494 -0.0103494 -0.000140886 103.494 3879.18 5160.32 
812 0.224 0.224 0 -0.00900634 -0.00900634 0.000122252 90.0634 2389.97 3480.8 
852 0.2316 0.2316 0 -0.00922555 -0.00922555 7.13842e-05 92.2555 2743.91 3245.17 
892 0.2382 0.2382 0 -0.0091531 -0.0091531 -0.000239988 91.531 1596.84 2741.5 
932 0.2016 0.2016 0 0.000188382 0.000188382 -4.58604e-05 161.38 9016.67 12045.5 
972 0.8792 0.8792 0 0.00270577 0.00270577 0.000136913 350.798 13403 17370.7 
1012 0.9042 0.9042 0 0.00184552 0.00184552 -0.000195012 359.136 9819.04 13174 
1052 0.8626 0.8626 0 0.00185667 0.00185667 -4.65082e-05 344.034 13241.5 17793.1 
1092 0.794 0.794 0 0.00225987 0.00225987 0.000457635 315.698 9402.47 12747.7 
1132 0.7192 0.7192 0 0.00190388 0.00190388 7.2842e-05 287.237 8998.49 12771.9 
1172 0.5598 0.5598 0 0.00219257 0.00219257 0.000205897 225.2 10163.2 14034.3 
1212 0.4718 0.4718 0 0.00498911 0.00498911 0.000184236 189.627 14188.9 16522.1 
13 2.2072 2.2072 0 0.0910805 0.0910805 -0.000133468 1845.65 128843 170842 
53 9.8994 9.8994 0 0.403711 0.403711 -0.000190578 4037.11 199191 289424 
93 10.6116 10.6116 0 0.427958 0.427958 -9.10507e-05 4279.58 192524 283346 
133 10.9354 10.9354 0 0.440729 0.440729 -0.00176397 4407.29 180303 266354 
173 11.0814 11.0814 0 0.447575 0.447575 -0.000644438 4475.75 181753 268091 
213 10.721 10.721 0 0.433361 0.433361 0.000552409 4333.61 181919 266159 
253 10.3242 10.3242 0 0.41872 0.41872 -0.000603779 4187.2 195442 287997 
293 8.919 8.919 0 0.367175 0.367175 -0.000285142 3671.75 220399 311790 
333 0.455 0.455 0 0.00516109 0.00516109 3.52619e-05 185.963 14602.5 18155.8 
373 0.565 0.565 0 0.00237496 0.00237496 9.88827e-05 225.143 10717.1 14173.2 
413 0.6876 0.6876 0 0.00212481 0.00212481 -4.31514e-05 274.146 11564.4 15278.3 