ITEM: TIMESTEP
25000
ITEM: NUMBER OF SURFS
1260
ITEM: BOX BOUNDS oo rr pp
0 0.3
0 0.3
-0.5 0.5
ITEM: SURFS id f_4[1] f_4[2] f_4[3] f_4[4] f_4[5] f_4[6] f_4[7] f_4[8] f_4[9] 
1 0.0214 0.0214 0 0.000475251 0.000475251 -6.11958e-05 151.665 20949 26515.8 
41 9.388 9.388 0 0.385425 0.385425 -0.000309093 3854.25 213823 304572 
81 10.534 10.534 0 0.427023 0.427023 0.000419202 4270.23 190654 277281 
121 10.727 10.727 0 0.4339 0.4339 0.000195568 4339 179215 268251 
161 10.9126 10.9126 0 0.438088 0.438088 0.000400796 4380.88 176731 263019 
201 10.8446 10.8446 0 0.436238 0.436238 0.000878148 4362.38 186581 271371 
241 10.5698 10.5698 0 0.427533 0.427533 0.00141343 4275.33 189515 274269 
281 9.8404 9.8404 0 0.402019 0.402019 0.00116621 4020.19 209142 303083 
321 0.1608 0.1608 0 0.00648037 0.00648037 0.000133214 1302.62 106041 144076 
361 0.4412 0.4412 0 0.00308999 0.00308999 -9.39666e-05 177.565 8980.66 12451.8 
401 0.5784 0.5784 0 0.00202707 0.00202707 -0.000227873 233.684 8355.39 11104.8 
441 0.707 0.707 0 0.00190167 0.00190167 -0.000121668 281.266 10209.9 13782.7 
481 0.8166 0.8166 0 0.00149723 0.00149723 0.000119429 322.646 9288.98 12946.4 
521 0.8536 0.8536 0 0.00198047 0.00198047 0.000242962 340.661 13064.2 16767 
561 0.923 0.923 0 0.00226624 0.00226624 -0.000529093 364.085 11330.6 16489.4 
601 0.8376 0.8376 0 0.00196514 0.00196514 8.49107e-05 332.308 9994.73 13835.4 
641 0.0068 0.0068 0 -0.000162315 -0.000162315 -1.53868e-05 43.5774 3268.53 5386.3 
681 0.2164 0.2164 0 -0.00821993 -0.00821993 8.23295e-05 82.1993 -218.788 -644.298 
721 0.2226 0.2226 0 -0.00870412 -0.00870412 3.58447e-05 87.0412 1142.36 2301.64 
761 0.252 0.252 0 -0.0101739 -0.0101739 -9.68975e-05 101.739 3024.67 4944.36 
801 0.2468 0.2468 0 -0.00994053 -0.00994053 -0.000140035 99.4053 4961.28 5557.79 
841 0.2266 0.2266 0 -0.00909866 -0.00909866 1.06038e-05 90.9866 2639.59 3320.14 
881 0.2134 0.2134 0 -0.00835782 -0.00835782 -0.000106554 83.5782 1786.94 2625.23 
921 0.2234 0.2234 0 -0.00883482 -0.00883482 5.77925e-05 88.3482 1376.89 1757.15 
961 0.0228 0.0228 0 0.000270206 0.000270206 4.67382e-06 185.264 12551.2 16925 
1001 0.8308 0.8308 0 0.002059 0.002059 7.57893e-05 334.054 8874.61 13087.4 
1041 0.9032 0.9032 0 0.00193302 0.00193302 -0.00027995 358.403 11670 16727.8 
1081 0.836 0.836 0 0.00196655 0.00196655 6.85172e-05 334.543 9469.21 12070.5 
1121 0.788 0.788 0 0.00209471 0.00209471 -3.05963e-07 316.468 10195.1 14333.2 
1161 0.6944 0.6944 0 0.00228344 0.00228344 -0.000263472 275.423 9174.43 12817.6 
1201 0.541 0.541 0 0.00198888 0.00198888 -2.10788e-05 217.852 7330.51 10135.3 
1241 0.4074 0.4074 0 0.00333686 0.00333686 -0.000209512 161.217 10103 13779.7 
2 0.031 0.031 0 0.000639957 0.000639957 1.59666e-05 234.509 32970.8 42986 
42 9.5014 9.5014 0 0.388156 0.388156 0.000260548 3881.56 214588 307586 
82 10.4558 10.4558 0 0.424455 0.424455 0.000654544 4244.55 198508 291781 
122 10.9502 10.9502 0 0.4421 0.4421 -0.00053757 4421 189702 273200 
162 10.9756 10.9756 0 0.441884 0.441884 -0.00127545 4418.84 181955 267737 
202 10.8642 10.8642 0 0.438082 0.438082 -0.000109191 4380.82 182399 267607 
242 10.6348 10.6348 0 0.430835 0.430835 -0.00123098 4308.35 197258 282375 
282 9.8146 9.8146 0 0.401368 0.401368 -0.00124764 4013.68 210345 303263 
322 0.1398 0.1398 0 0.00548575 0.00548575 0.000110954 1111.65 85493.3 120980 
362 0.4364 0.4364 0 0.0025479 0.0025479 0.00020655 172.902 8971.08 11864.2 
402 0.5772 0.5772 0 0.00176429 0.00176429 -0.000534791 228.221 8305.02 11978.3 
442 0.7146 0.7146 0 0.00214071 0.00214071 4.16931e-05 283.33 9126.15 12452.4 
482 0.8092 0.8092 0 0.00213149 0.00213149 -3.41778e-05 318.15 10138.1 15310.9 
522 0.8744 0.8744 0 0.00195717 0.00195717 8.33977e-05 346.137 11245.7 15843.3 
562 0.8722 0.8722 0 0.00206253 0.00206253 0.000463374 343.456 11327.3 16090 
602 0.8572 0.8572 0 0.00279542 0.00279542 5.9819e-05 337.265 12120.3 16003.9 
642 0.0042 0.0042 0 -9.65141e-05 -9.65141e-05 -1.92352e-05 27.8641 692.827 -198.91 
682 0.2218 0.2218 0 -0.00860491 -0.00860491 0.000132793 86.0491 1582.1 2490.61 
722 0.2278 0.2278 0 -0.00906431 -0.00906431 -0.000134687 90.6431 1331.92 2033.49 
762 0.2368 0.2368 0 -0.00934533 -0.00934533 -6.16766e-06 93.4533 4127.14 5749.59 
802 0.2532 0.2532 0 -0.0100666 -0.0100666 2.30617e-05 100.666 4476.23 6497.67 
842 0.2326 0.2326 0 -0.00925317 -0.00925317 -4.17094e-05 92.5317 3343.37 4864.84 
882 0.2278 0.2278 0 -0.00908453 -0.00908453 0.000121757 90.8453 1273.54 2308.38 
922 0.219 0.219 0 -0.00871604 -0.00871604 -0.000184767 87.1604 1188.5 1154.32 
962 0.5188 0.5188 0 0.00486888 0.00486888 -1.49193e-05 208.813 11327.5 15228.9 
1002 0.8736 0.8736 0 0.00205756 0.00205756 0.000127433 347.049 13845.2 19630.6 
1042 0.8726 0.8726 0 0.00213316 0.00213316 -0.000275695 346.107 10225.1 12898.6 
1082 0.825 0.825 0 0.0019207 0.0019207 -0.000122734 326.141 9945.37 14317.2 
1122 0.7782 0.7782 0 0.0016134 0.0016134 3.19773e-05 312.41 8964.67 13502.1 
1162 0.6512 0.6512 0 0.00167574 0.00167574 0.000408339 260.15 8127.67 11768.2 
1202 0.5434 0.5434 0 0.00187308 0.00187308 -3.01102e-05 221.172 9736.77 12667.3 
1242 0.3854 0.3854 0 0.00305471 0.00305471 0.000178439 157.621 8956.26 11064.7 
3 0.0356 0.0356 0 0.000885356 0.000885356 -5.07123e-06 272.552 36084.8 40514.9 
43 9.4564 9.4564 0 0.386862 0.386862 0.00012055 3868.62 205592 297488 
83 10.4594 10.4594 0 0.423191 0.423191 0.000435831 4231.91 188487 275281 
123 10.96 10.96 0 0.442086 0.442086 -0.000560574 4420.86 193922 279365 
163 11.1012 11.1012 0 0.44771 0.44771 -0.000106087 4477.1 181193 263286 
203 10.945 10.945 0 0.441195 0.441195 -0.00206514 4411.95 185124 275526 
243 10.5682 10.5682 0 0.429222 0.429222 -3.78815e-05 4292.22 194811 280105 
283 9.641 9.641 0 0.393684 0.393684 -0.000902027 3936.84 201149 292259 
323 0.1116 0.1116 0 0.0042419 0.0042419 -1.01338e-05 886.66 62967 92383.1 
363 0.4312 0.4312 0 0.00293967 0.00293967 -2.15561e-05 174.436 8644.73 11118.3 
403 0.5936 0.5936 0 0.00225793 0.00225793 -0.000217275 237.881 9350.84 11984.5 
443 0.7284 0.7284 0 0.00170941 0.00170941 -6.56087e-05 290.913 10202.3 14691.2 
483 0.807 0.807 0 0.00198616 0.00198616 -0.000101551 317.277 10359.6 13427.5 
523 0.8624 0.8624 0 0.00192983 0.00192983 0.000163745 342.43 12602.7 15266.7 
563 0.9346 0.9346 0 0.00235735 0.00235735 -0.000178774 368.473 8621.25 13075.4 
603 0.8264 0.8264 0 0.0021814 0.0021814 -0.000112591 330.996 10624.7 14871.4 
643 0.0038 0.0038 0 -0.000102283 -0.000102283 8.64454e-06 25.6011 456.195 610.04 
683 0.2294 0.2294 0 -0.00889472 -0.00889472 -0.000110986 88.9472 1392.93 1692.39 
723 0.2318 0.2318 0 -0.00909364 -0.00909364 3.53738e-05 90.9364 2376.82 3113.27 
763 0.2462 0.2462 0 -0.00972466 -0.00972466 -7.00335e-05 97.2466 2436.01 3733.74 
803 0.2374 0.2374 0 -0.00960773 -0.00960773 -7.21156e-05 96.0773 4062.62 4877.4 
843 0.242 0.242 0 -0.0096505 -0.0096505 1.05082e-05 96.505 2838.7 3927.91 
883 0.2186 0.2186 0 -0.00866596 -0.00866596 0.000108545 86.6596 595.647 795.539 
923 0.2078 0.2078 0 -0.00821716 -0.00821716 -0.000121006 82.1716 1411.74 1415.71 
963 0.5792 0.5792 0 0.00462117 0.00462117 -0.000603801 233.085 11445.3 14004.6 
1003 0.8948 0.8948 0 0.00204476 0.00204476 -0.000461072 357.097 9515.29 13251.2 
1043 0.8912 0.8912 0 0.00155584 0.00155584 0.000106943 355.112 12062.1 16106.1 
1083 0.827 0.827 0 0.00240067 0.00240067 -8.19157e-05 333.65 10709.3 14606.2 
1123 0.7734 0.7734 0 0.00229961 0.00229961 -0.000222983 310.456 11527.4 15854 
1163 0.6728 0.6728 0 0.00147932 0.00147932 -0.000676061 269.208 10567.7 14659 
1203 0.5598 0.5598 0 0.00257671 0.00257671 0.000109489 224.079 11002.7 14247.6 
1243 0.3914 0.3914 0 0.00370398 0.00370398 1.98638e-05 157.67 12312.6 14527.4 
4 0.0342 0.0342 0 0.00087333 0.00087333 0.000121609 269.276 23070.2 26483 
44 9.6018 9.6018 0 0.392734 0.392734 2.0839e-05 3927.34 214663 307711 
84 10.447 10.447 0 0.422943 0.422943 0.000790021 4229.43 191445 281585 
124 10.7794 10.7794 0 0.434424 0.434424 -0.000587891 4344.24 184188 268912 
164 10.9124 10.9124 0 0.439273 0.439273 -0.000818762 4392.73 175343 258121 
204 10.8676 10.8676 0 0.438926 0.438926 0.000295964 4389.26 187023 274216 
244 10.6412 10.6412 0 0.429629 0.429629 -0.000287281 4296.29 193398 277052 
284 9.7514 9.7514 0 0.396908 0.396908 0.000286074 3969.08 211071 308479 
324 0.0912 0.0912 0 0.0031536 0.0031536 -0.000160185 706.298 48174.7 70813.2 
364 0.4382 0.4382 0 0.00261272 0.00261272 9.82292e-06 175.756 10968.2 13538 
404 0.5866 0.5866 0 0.0021668 0.0021668 0.000334041 233.89 9409.13 12710.5 
444 0.695 0.695 0 0.00194735 0.00194735 0.000252537 282.17 11245.8 13338.4 
484 0.8122 0.8122 0 0.00157254 0.00157254 4.39683e-05 322.094 10933.2 15219.2 
524 0.8678 0.8678 0 0.00189679 0.00189679 0.000153213 342.905 10038.1 14174.3 
564 0.8812 0.8812 0 0.00186812 0.00186812 5.25134e-05 348.747 10255.7 14976.4 
604 0.8372 0.8372 0 0.00271603 0.00271603 -0.000190676 335.52 11007.5 15387.2 
644 0.0026 0.0026 0 -6.69979e-05 -6.69979e-05 1.08053e-05 16.7241 1720.94 1804.66 
684 0.2322 0.2322 0 -0.0091739 -0.0091739 -0.00016693 91.739 2005.13 2558.64 
724 0.222 0.222 0 -0.00879514 -0.00879514 0.000188037 87.9514 1682.26 2828.92 
764 0.2444 0.2444 0 -0.00971066 -0.00971066 -2.9137e-05 97.1066 3537.08 5289.53 
804 0.2494 0.2494 0 -0.0100154 -0.0100154 9.65178e-05 100.154 3426.55 5537.28 
844 0.232 0.232 0 -0.00933655 -0.00933655 -9.79773e-05 93.3655 3577.16 4695.25 
884 0.2234 0.2234 0 -0.00868782 -0.00868782 0.0002508 86.8782 2332.14 2328.07 
924 0.2304 0.2304 0 -0.0088005 -0.0088005 -6.7165e-05 88.005 2133.19 3171.46 
964 0.6178 0.6178 0 0.0044986 0.0044986 -5.37559e-06 248.989 12329.7 14708.3 
1004 0.8886 0.8886 0 0.00240496 0.00240496 -3.01965e-05 351.996 11178.4 15776.9 
1044 0.8996 0.8996 0 0.00222874 0.00222874 0.000177922 359.106 14133.6 18437.8 
1084 0.8338 0.8338 0 0.00190464 0.00190464 -0.000139385 333.428 9790.36 13547.4 
1124 0.7558 0.7558 0 0.00117142 0.00117142 0.000202345 297.138 8649.32 11730.7 
1164 0.6824 0.6824 0 0.00199687 0.00199687 -0.000132204 274.061 11766.6 14930.1 
1204 0.5428 0.5428 0 0.00207031 0.00207031 6.5165e-05 216.852 9758.19 12604.7 
1244 0.4088 0.4088 0 0.00394888 0.00394888 3.70073e-05 164.091 10538.8 13011.8 
5 0.0506 0.0506 0 0.00142341 0.00142341 -8.19131e-06 408.199 32698 47821.4 
45 9.4962 9.4962 0 0.38828 0.38828 -0.000555783 3882.8 202334 295581 
85 10.5616 10.5616 0 0.427453 0.427453 0.000595589 4274.53 192700 278420 
125 10.9098 10.9098 0 0.440214 0.440214 0.00203921 4402.14 178169 262484 
165 10.91 10.91 0 0.439023 0.439023 -0.00118495 4390.23 188271 269761 
205 10.7528 10.7528 0 0.434493 0.434493 0.000944653 4344.93 184600 271223 
245 10.4254 10.4254 0 0.422795 0.422795 2.37197e-05 4227.95 197673 283817 
285 9.7706 9.7706 0 0.400196 0.400196 0.00137929 4001.96 213680 310218 
325 0.0732 0.0732 0 0.00245683 0.00245683 5.27378e-05 569.145 43401.7 45630.6 
365 0.4576 0.4576 0 0.00261996 0.00261996 -8.89781e-05 184.486 8780.43 11357.5 
405 0.589 0.589 0 0.00203316 0.00203316 0.000105892 236.241 9552.95 13302.6 
445 0.7034 0.7034 0 0.00164253 0.00164253 0.000100155 279.297 9581.15 13547.9 
485 0.7796 0.7796 0 0.0019264 0.0019264 -0.000498791 312.175 9651.4 12769.7 
525 0.882 0.882 0 0.00201801 0.00201801 -0.000144936 348.438 9217.06 13501.4 
565 0.9034 0.9034 0 0.00168048 0.00168048 -7.84021e-05 359.644 10595.5 14527.9 
605 0.846 0.846 0 0.00267542 0.00267542 0.000338922 336.401 11668.5 15445.6 
645 0.0046 0.0046 0 -0.000124652 -0.000124652 -4.55252e-05 27.2814 932.41 3630.46 
685 0.2224 0.2224 0 -0.00867214 -0.00867214 -6.27958e-05 86.7214 905.474 1325.4 
725 0.2074 0.2074 0 -0.00825566 -0.00825566 0.000176653 82.5566 1493.74 1849.7 
765 0.2372 0.2372 0 -0.00942464 -0.00942464 -9.07684e-05 94.2464 3918.07 5631.77 
805 0.2578 0.2578 0 -0.0105247 -0.0105247 -9.29581e-05 105.247 3981 5667.52 
845 0.2338 0.2338 0 -0.00936408 -0.00936408 0.000117912 93.6408 3381.78 4177.08 
885 0.2348 0.2348 0 -0.00903191 -0.00903191 -7.56276e-05 90.3191 734.808 2146.2 
925 0.2216 0.2216 0 -0.00854979 -0.00854979 4.16237e-05 85.4979 1406.16 2196.43 
965 0.6278 0.6278 0 0.00377778 0.00377778 0.000230752 247.219 11862.2 15066.6 
1005 0.8786 0.8786 0 0.00221091 0.00221091 4.17601e-05 349.496 11159 15296.1 
1045 0.8828 0.8828 0 0.0015408 0.0015408 0.000199779 351.113 11607.1 15839.4 
1085 0.8236 0.8236 0 0.00122506 0.00122506 2.31491e-05 328.761 8593.6 12810.6 
1125 0.7752 0.7752 0 0.00181408 0.00181408 -0.000214139 305.734 11271.2 15942.5 
1165 0.6632 0.6632 0 0.00154363 0.00154363 0.000267313 262.177 8158.76 11294.5 
1205 0.5214 0.5214 0 0.00205355 0.00205355 4.91512e-05 206.74 7394.93 10127.6 
1245 0.3988 0.3988 0 0.00386279 0.00386279 -0.000316335 159.893 11549.2 14529.7 
6 0.0534 0.0534 0 0.00176908 0.00176908 2.81121e-05 436.649 33181 42942.1 
46 9.5982 9.5982 0 0.391982 0.391982 0.000673335 3919.82 208894 300507 
86 10.5154 10.5154 0 0.425719 0.425719 -0.00115826 4257.19 191266 277172 
126 10.8806 10.8806 0 0.43837 0.43837 0.000552798 4383.7 185003 274849 
166 10.9932 10.9932 0 0.443158 0.443158 -0.000227718 4431.58 187935 267951 
206 10.9198 10.9198 0 0.441366 0.441366 -0.00100864 4413.66 189737 277572 
246 10.5272 10.5272 0 0.426459 0.426459 -0.000607064 4264.59 195900 281233 
286 9.6186 9.6186 0 0.393791 0.393791 0.00220146 3937.91 204966 299957 
326 0.0578 0.0578 0 0.00187416 0.00187416 3.99789e-05 457.604 35231.1 40649.3 
366 0.4502 0.4502 0 0.00295743 0.00295743 0.000151758 183.421 9197.16 13273.8 
406 0.5874 0.5874 0 0.00188058 0.00188058 0.000134138 236.409 10447.1 15124.2 
446 0.7174 0.7174 0 0.00220724 0.00220724 -0.000182113 288.261 10394.8 13746.3 
486 0.7922 0.7922 0 0.00177115 0.00177115 0.000244718 319.416 8951.42 13492.9 
526 0.858 0.858 0 0.00208155 0.00208155 -0.000188335 335.709 8357.62 13148.8 
566 0.8864 0.8864 0 0.00227748 0.00227748 -0.000208725 352.788 12835.2 17360.3 
606 0.8394 0.8394 0 0.00272392 0.00272392 0.000516949 331.27 13255.1 17540.3 
646 0.002 0.002 0 -5.81754e-05 -5.81754e-05 -5.14599e-06 12.1255 -405.917 -1100.46 
686 0.2258 0.2258 0 -0.00886263 -0.00886263 -8.96095e-05 88.6263 1642.01 1736.88 
726 0.227 0.227 0 -0.00901086 -0.00901086 -9.68997e-06 90.1086 2909.35 4186.32 
766 0.2376 0.2376 0 -0.00934258 -0.00934258 0.000120569 93.4258 3376 4089.85 
806 0.2538 0.2538 0 -0.010091 -0.010091 0.000277964 100.91 3594.36 5709.44 
846 0.2284 0.2284 0 -0.00920593 -0.00920593 -0.00022644 92.0593 2653.54 3634.55 
886 0.2204 0.2204 0 -0.00866922 -0.00866922 7.98592e-05 86.6922 2443.08 2895.4 
926 0.2162 0.2162 0 -0.00832821 -0.00832821 -8.57707e-05 83.2821 1341.49 1697.58 
966 0.6544 0.6544 0 0.00388382 0.00388382 0.00013421 262.53 11449.9 16186.7 
1006 0.9048 0.9048 0 0.00173148 0.00173148 0.000379025 356.605 13515.2 17120.4 
1046 0.8898 0.8898 0 0.00177635 0.00177635 1.78649e-05 352.062 9497.84 12467.9 
1086 0.835 0.835 0 0.00129169 0.00129169 -4.42619e-05 333.128 11019.5 14998.2 
1126 0.764 0.764 0 0.00191419 0.00191419 0.000127219 299.42 9590.59 13859.8 
1166 0.6506 0.6506 0 0.00187824 0.00187824 -0.000269135 257.2 8000.59 10637 
1206 0.5344 0.5344 0 0.00173139 0.00173139 -4.61862e-06 211.398 9267.72 12961.4 
1246 0.3876 0.3876 0 0.00400874 0.00400874 0.000259348 155.729 10058.9 12581.5 
7 0.066 0.066 0 0.00212273 0.00212273 -2.80369e-05 507.358 20089.7 33761.3 
47 9.6996 9.6996 0 0.396816 0.396816 0.00109614 3968.16 204310 295338 
87 10.536 10.536 0 0.428326 0.428326 -0.000141773 4283.26 190012 270980 
127 10.8902 10.8902 0 0.438379 0.438379 0.00150786 4383.79 179317 261421 
167 10.8966 10.8966 0 0.439315 0.439315 -0.000243358 4393.15 178644 259220 
207 10.8058 10.8058 0 0.437071 0.437071 8.35935e-05 4370.71 192544 273859 
247 10.5696 10.5696 0 0.427 0.427 0.000718995 4270 188263 274251 
287 9.5892 9.5892 0 0.391945 0.391945 -0.000226455 3919.45 203952 293940 
327 0.0502 0.0502 0 0.00145265 0.00145265 -4.9434e-05 373.827 42174.4 54567.6 
367 0.4418 0.4418 0 0.00242193 0.00242193 -9.32725e-05 176.72 8580.61 11243.7 
407 0.6102 0.6102 0 0.00197644 0.00197644 -0.000392489 246.945 8522.01 11408.1 
447 0.7316 0.7316 0 0.00198915 0.00198915 -2.93563e-06 295.643 8492.69 12553.4 
487 0.8168 0.8168 0 0.00221371 0.00221371 -7.51735e-05 322.531 9659.99 14456 
527 0.8716 0.8716 0 0.0017076 0.0017076 -0.000438378 344.664 11681.7 14772.8 
567 0.8852 0.8852 0 0.00201591 0.00201591 -6.14279e-05 353.621 11532.6 15211.6 
607 0.8194 0.8194 0 0.00270126 0.00270126 -0.000470041 325.356 12204.9 16899.1 
647 0.0616 0.0616 0 -0.00211246 -0.00211246 1.62242e-05 21.1246 361.496 805.478 
687 0.2252 0.2252 0 -0.00877792 -0.00877792 8.53864e-05 87.7792 2057.5 2230.63 
727 0.2232 0.2232 0 -0.00870506 -0.00870506 -0.000193588 87.0506 2055.55 2973.66 
767 0.2428 0.2428 0 -0.00957557 -0.00957557 0.000181066 95.7557 2263.18 3061.03 
807 0.2488 0.2488 0 -0.00976241 -0.00976241 0.000279556 97.6241 3099.57 4664.86 
847 0.2276 0.2276 0 -0.00910651 -0.00910651 0.000198089 91.0651 2534.99 3640.13 
887 0.2404 0.2404 0 -0.00950723 -0.00950723 -0.000128662 95.0723 3322.43 4834.42 
927 0.2078 0.2078 0 -0.00806811 -0.00806811 0.000170927 80.6811 1577.49 1732.07 
967 0.6854 0.6854 0 0.00354803 0.00354803 0.000125748 274.54 11192 15144 
1007 0.9044 0.9044 0 0.00246528 0.00246528 -2.29277e-05 356.419 9010.61 12364 
1047 0.8564 0.8564 0 0.00194473 0.00194473 0.000173143 338.778 12002.6 16559.3 
1087 0.8436 0.8436 0 0.00178204 0.00178204 5.11747e-05 336.586 10328.9 14858.7 
1127 0.7728 0.7728 0 0.00174355 0.00174355 7.94876e-05 306.893 11542.1 14771.3 
1167 0.652 0.652 0 0.00162002 0.00162002 0.000341098 261.336 8196.65 11009.1 
1207 0.5328 0.5328 0 0.00264223 0.00264223 -6.90624e-05 215.215 9077.91 12542.9 
1247 0.3992 0.3992 0 0.00380674 0.00380674 0.0001636 161.021 12616.6 15168.5 
8 0.078 0.078 0 0.0027929 0.0027929 0.000133885 610.023 45497.8 64424.5 
48 9.6528 9.6528 0 0.394766 0.394766 -0.00123888 3947.66 201082 287504 
88 10.5436 10.5436 0 0.427587 0.427587 0.000756191 4275.87 191115 280695 
128 10.8518 10.8518 0 0.438075 0.438075 -0.000253264 4380.75 182966 265894 
168 10.854 10.854 0 0.438067 0.438067 0.000175967 4380.67 176167 256520 
208 10.9366 10.9366 0 0.44208 0.44208 -8.48901e-05 4420.8 194199 286781 
248 10.517 10.517 0 0.426404 0.426404 -3.14421e-06 4264.04 202748 288547 
288 9.4746 9.4746 0 0.387662 0.387662 0.000411597 3876.62 208376 302931 
328 0.0408 0.0408 0 0.00110866 0.00110866 7.10983e-05 319.284 42399.7 44905.9 
368 0.4616 0.4616 0 0.00263947 0.00263947 1.12466e-05 184.332 7751.76 10627.1 
408 0.5996 0.5996 0 0.00182656 0.00182656 -6.75596e-05 241.373 8018.61 11067.5 
448 0.7252 0.7252 0 0.00204794 0.00204794 0.00022123 286.433 9023.31 10939.7 
488 0.8062 0.8062 0 0.00129357 0.00129357 -0.000151437 323.891 9317.46 12658.3 
528 0.866 0.866 0 0.00193325 0.00193325 0.000387669 342.803 10531.4 15023.8 
568 0.8832 0.8832 0 0.00208911 0.00208911 -0.000246575 353.691 12277.2 14735.2 
608 0.8196 0.8196 0 0.00236128 0.00236128 -0.000292774 330.788 10728.4 13411.8 
648 0.0858 0.0858 0 -0.0030578 -0.0030578 0.000136589 30.578 -159.912 412.066 
688 0.2224 0.2224 0 -0.00883202 -0.00883202 7.19412e-05 88.3202 1289.63 1697.23 
728 0.2186 0.2186 0 -0.00865512 -0.00865512 -9.41963e-05 86.5512 1800.94 3181.47 
768 0.243 0.243 0 -0.00973096 -0.00973096 -7.3134e-05 97.3096 2717.01 4245.57 
808 0.2404 0.2404 0 -0.00969572 -0.00969572 -0.000356067 96.9572 2595.11 4195.64 
848 0.2222 0.2222 0 -0.00873658 -0.00873658 -2.238e-05 87.3658 3260.3 4307.28 
888 0.2246 0.2246 0 -0.00882957 -0.00882957 -3.85911e-05 88.2957 1613.03 1944.67 
928 0.219 0.219 0 -0.00866394 -0.00866394 -0.000141766 86.6394 1546.98 1805.91 
968 0.7034 0.7034 0 0.00402353 0.00402353 0.000162919 280.53 11319.2 14927.5 
1008 0.8596 0.8596 0 0.00237063 0.00237063 3.35563e-05 340.465 10150.6 14160.1 
1048 0.9182 0.9182 0 0.0016858 0.0016858 -3.99197e-05 363.057 9426.64 12959.4 
1088 0.817 0.817 0 0.00187215 0.00187215 -3.8741e-05 325.38 9218.19 12336.3 
1128 0.7692 0.7692 0 0.00139147 0.00139147 -0.000140866 309.421 10664.9 12949.5 
1168 0.6652 0.6652 0 0.00179232 0.00179232 -7.54445e-05 266.347 9417.2 13121.1 
1208 0.5332 0.5332 0 0.00227673 0.00227673 -5.83369e-06 210.723 8264.78 11534.3 
1248 0.406 0.406 0 0.00420184 0.00420184 0.000119402 161.521 12607 15468.8 
9 0.114 0.114 0 0.00402943 0.00402943 -0.000143448 855.181 63183.9 96580.5 
49 9.8536 9.8536 0 0.402586 0.402586 0.00112569 4025.86 207006 303679 
89 10.4978 10.4978 0 0.424825 0.424825 0.000388969 4248.25 193339 276808 
129 10.915 10.915 0 0.439693 0.439693 -0.00139208 4396.93 177114 261787 
169 11.0104 11.0104 0 0.44386 0.44386 0.000240953 4438.6 189684 275313 
209 10.822 10.822 0 0.436979 0.436979 -0.00119108 4369.79 191553 275465 
249 10.3362 10.3362 0 0.418412 0.418412 0.000327774 4184.12 187884 271857 
289 9.5852 9.5852 0 0.392738 0.392738 -0.00128592 3927.38 215305 307027 
329 0.0366 0.0366 0 0.000850881 0.000850881 1.58391e-05 279.796 24186.7 28587.9 
369 0.4546 0.4546 0 0.00250023 0.00250023 0.000115188 184.309 8083.99 11661.8 
409 0.5902 0.5902 0 0.00218368 0.00218368 -5.09349e-06 239.668 7650.62 10690.2 
449 0.7438 0.7438 0 0.0016703 0.0016703 -0.000154582 292.816 9797.01 13753.8 
489 0.8278 0.8278 0 0.00149568 0.00149568 -6.6379e-05 329.367 8923.58 13141.8 
529 0.8638 0.8638 0 0.00212038 0.00212038 -6.76715e-05 345.555 11929.6 15549.1 
569 0.9046 0.9046 0 0.00238878 0.00238878 2.72944e-05 359.35 11455.8 16269.9 
609 0.8226 0.8226 0 0.00216517 0.00216517 0.000151493 324.301 11158.5 14709 
649 0.1076 0.1076 0 -0.00395654 -0.00395654 -2.49077e-05 39.5654 906.21 1342.38 
689 0.2188 0.2188 0 -0.00868478 -0.00868478 3.04623e-05 86.8478 1977.18 2324.48 
729 0.2318 0.2318 0 -0.00900078 -0.00900078 2.17526e-05 90.0078 1912.09 2793.82 
769 0.2616 0.2616 0 -0.0103132 -0.0103132 2.24881e-05 103.132 4091.65 5225.73 
809 0.264 0.264 0 -0.010509 -0.010509 0.000129468 105.09 3746.11 4586.14 
849 0.2218 0.2218 0 -0.00873644 -0.00873644 2.79496e-05 87.3644 3074.14 4214.17 
889 0.225 0.225 0 -0.00885748 -0.00885748 -5.95908e-05 88.5748 812.547 1014.14 
929 0.2006 0.2006 0 -0.00784936 -0.00784936 -5.86624e-05 78.4936 1117.34 1380.82 
969 0.7008 0.7008 0 0.00358068 0.00358068 -0.000260923 276.577 9161.07 12217.9 
1009 0.8886 0.8886 0 0.00186676 0.00186676 -8.76832e-05 352.811 10111.9 14413.4 
1049 0.8852 0.8852 0 0.00224202 0.00224202 -5.85671e-06 348.557 11221.6 14542.2 
1089 0.8462 0.8462 0 0.00205737 0.00205737 -0.00014965 334.999 10640.7 15055.9 
1129 0.7486 0.7486 0 0.00218037 0.00218037 8.20788e-05 297.628 9151.91 13666.3 
1169 0.6494 0.6494 0 0.00222704 0.00222704 -0.000260364 260.195 8479.19 12166.2 
1209 0.5216 0.5216 0 0.00224884 0.00224884 -0.000106016 210.925 8927.86 12235.8 
1249 0.3818 0.3818 0 0.00435768 0.00435768 -0.000130906 152.822 13092.1 15529.8 
10 0.1326 0.1326 0 0.00531451 0.00531451 -5.0162e-05 1070.8 105066 138965 
50 9.6698 9.6698 0 0.394795 0.394795 -0.000997114 3947.95 199580 287658 
90 10.6418 10.6418 0 0.43199 0.43199 -0.000479417 4319.9 195472 284455 
130 11.0474 11.0474 0 0.445863 0.445863 -0.000815209 4458.63 183671 268065 
170 10.9242 10.9242 0 0.440035 0.440035 0.00179981 4400.35 183702 272866 
210 10.7782 10.7782 0 0.435733 0.435733 0.0016724 4357.33 192265 275374 
250 10.5468 10.5468 0 0.425991 0.425991 -0.000546263 4259.91 197951 284628 
290 9.5212 9.5212 0 0.389186 0.389186 0.000359037 3891.86 210859 307259 
330 0.0246 0.0246 0 0.000578754 0.000578754 2.9948e-05 189.888 24999.3 31768.1 
370 0.4708 0.4708 0 0.00255501 0.00255501 0.000135971 185.96 7892.29 8825.39 
410 0.592 0.592 0 0.00186881 0.00186881 0.000176794 235.929 9892.66 13240.5 
450 0.7366 0.7366 0 0.00207763 0.00207763 0.000164737 293.161 10691.4 13502.1 
490 0.8214 0.8214 0 0.00196665 0.00196665 0.000291549 325.61 10175.8 13046.8 
530 0.9188 0.9188 0 0.00275174 0.00275174 0.000608453 363.166 11467.2 16186.5 
570 0.9026 0.9026 0 0.00213515 0.00213515 -0.000121381 356.136 10718.9 15627.7 
610 0.8102 0.8102 0 0.00256414 0.00256414 -1.55171e-05 320.568 9529.23 14415.3 
650 0.1296 0.1296 0 -0.00484007 -0.00484007 -1.72744e-05 48.4007 521.866 1053.51 
690 0.2314 0.2314 0 -0.00905 -0.00905 0.000119807 90.5 2173.8 2866.97 
730 0.2346 0.2346 0 -0.0091348 -0.0091348 0.000134041 91.348 2586.82 3787.34 
770 0.2496 0.2496 0 -0.00975087 -0.00975087 4.73449e-05 97.5087 3808.71 4651.27 
810 0.2442 0.2442 0 -0.00984012 -0.00984012 -0.000285225 98.4012 3893.85 5544.26 
850 0.2276 0.2276 0 -0.00904086 -0.00904086 0.000178497 90.4086 2183.86 2462.84 
890 0.2258 0.2258 0 -0.00891084 -0.00891084 -6.64076e-06 89.1084 1857 2768.4 
930 0.22 0.22 0 -0.00852919 -0.00852919 -0.000134469 85.2919 815.821 1498.88 
970 0.7362 0.7362 0 0.00350818 0.00350818 4.86244e-06 293.642 12355.6 16614.1 
1010 0.8722 0.8722 0 0.00212554 0.00212554 -0.000152186 344.826 11492.5 16759.5 
1050 0.883 0.883 0 0.00186293 0.00186293 9.34506e-05 352.792 12450.1 15988.5 
1090 0.8046 0.8046 0 0.00209451 0.00209451 0.000464227 318.856 11204.9 15657.3 
1130 0.7698 0.7698 0 0.00200834 0.00200834 -0.000224629 303.295 8151.32 10604.3 
1170 0.6304 0.6304 0 0.00186239 0.00186239 1.53192e-05 255.05 8243.41 11804.7 
1210 0.5076 0.5076 0 0.00247948 0.00247948 -0.000184846 201.745 8818.97 11494.2 
1250 0.3786 0.3786 0 0.00435254 0.00435254 -6.04911e-05 150.594 11536.5 13543.6 
11 0.1656 0.1656 0 0.00693282 0.00693282 1.69424e-05 1380.23 118309 154066 
51 9.7832 9.7832 0 0.398765 0.398765 -0.00222466 3987.65 205700 301184 
91 10.5592 10.5592 0 0.427524 0.427524 4.55491e-05 4275.24 189158 277510 
131 10.787 10.787 0 0.433568 0.433568 0.000120234 4335.68 176492 253407 
171 10.834 10.834 0 0.436759 0.436759 -0.000913581 4367.59 182822 269849 
211 10.819 10.819 0 0.437581 0.437581 0.000739188 4375.81 181884 266706 
251 10.4102 10.4102 0 0.422689 0.422689 0.00183774 4226.89 191168 280690 
291 9.4902 9.4902 0 0.388441 0.388441 0.000258319 3884.41 221345 312812 
331 0.0184 0.0184 0 0.000387967 0.000387967 1.6989e-05 135.247 20331.4 29080.5 
371 0.4792 0.4792 0 0.00228613 0.00228613 0.000186215 192.538 7794.71 11282.8 
411 0.6014 0.6014 0 0.00220832 0.00220832 -0.000205741 241.376 7665.91 11503.8 
451 0.7096 0.7096 0 0.00153089 0.00153089 0.000158107 283.731 10819 14443 
491 0.8172 0.8172 0 0.00208774 0.00208774 -0.000339977 324.271 10548.1 15437 
531 0.8634 0.8634 0 0.00185183 0.00185183 0.000310799 344.369 11687.4 16479.7 
571 0.8872 0.8872 0 0.0020341 0.0020341 -0.000146274 351.076 12812.3 16612.3 
611 0.8416 0.8416 0 0.00254845 0.00254845 -0.000233664 333.497 10420.7 15108.6 
651 0.1428 0.1428 0 -0.00551706 -0.00551706 -0.000116696 55.1706 366.691 964.126 
691 0.221 0.221 0 -0.00848119 -0.00848119 -0.000101583 84.8119 1952.35 2854.84 
731 0.2316 0.2316 0 -0.00926845 -0.00926845 0.000268891 92.6845 3217.15 4052.79 
771 0.248 0.248 0 -0.0101489 -0.0101489 0.000151479 101.489 2921.08 4568.35 
811 0.2554 0.2554 0 -0.0103388 -0.0103388 -0.000114869 103.388 3816.79 5490.69 
851 0.23 0.23 0 -0.0091793 -0.0091793 -3.65593e-05 91.793 3016.94 4333.11 
891 0.2172 0.2172 0 -0.00853843 -0.00853843 0.000190594 85.3843 2507.86 3207 
931 0.2046 0.2046 0 -0.00800543 -0.00800543 -0.00019301 80.0543 1239.83 1658.36 
971 0.7452 0.7452 0 0.00255895 0.00255895 7.74406e-05 299.135 12441.4 15297.4 
1011 0.885 0.885 0 0.00241893 0.00241893 -0.000225278 351.893 10916.2 14060.8 
1051 0.87 0.87 0 0.00188245 0.00188245 0.000129771 344.31 11149.3 16310.4 
1091 0.822 0.822 0 0.00173491 0.00173491 7.81651e-05 325.932 9598.41 13615.2 
1131 0.7486 0.7486 0 0.00165825 0.00165825 0.000385039 299.483 11307.1 15464.2 
1171 0.6364 0.6364 0 0.00174253 0.00174253 -0.000394774 256.017 9505.45 13548.8 
1211 0.5176 0.5176 0 0.00235168 0.00235168 -8.13964e-05 207.944 8685.52 11176.9 
1251 0.3688 0.3688 0 0.00431971 0.00431971 -0.000209182 150.172 11761.9 13779.6 
12 0.1966 0.1966 0 0.00794584 0.00794584 -0.000105713 1573.46 132979 175138 
52 9.932 9.932 0 0.404566 0.404566 -0.00121175 4045.66 203529 296511 
92 10.5838 10.5838 0 0.426623 0.426623 -0.000133955 4266.23 191190 280927 
132 10.972 10.972 0 0.440592 0.440592 -0.00145666 4405.92 179000 261013 
172 11.0082 11.0082 0 0.444985 0.444985 -0.000537492 4449.85 186372 271156 
212 10.8458 10.8458 0 0.437349 0.437349 -0.00190224 4373.49 191736 278517 
252 10.4422 10.4422 0 0.422475 0.422475 0.000555608 4224.75 193372 282824 
292 9.2986 9.2986 0 0.380413 0.380413 -0.000943834 3804.13 205456 296581 
332 0.259 0.259 0 0.00489381 0.00489381 0.000254782 96.6621 10995.1 13742.7 
372 0.4658 0.4658 0 0.00252522 0.00252522 -7.60012e-05 188.754 8100.27 10962.4 
412 0.6416 0.6416 0 0.00220026 0.00220026 3.18733e-05 256.395 9571.72 13578.4 
452 0.7426 0.7426 0 0.002021 0.002021 0.000124204 295.863 9440.89 12464.9 
492 0.8296 0.8296 0 0.00196497 0.00196497 -0.00044522 332.566 8107.07 12361.9 
532 0.878 0.878 0 0.00167828 0.00167828 -0.00034551 349.158 12242.5 16200.2 
572 0.8858 0.8858 0 0.00235554 0.00235554 4.72979e-05 351.685 10851.9 14267.4 
612 0.7842 0.7842 0 0.00265778 0.00265778 0.000364187 318.084 11089.2 15700.2 
652 0.1458 0.1458 0 -0.00581401 -0.00581401 0.000137789 58.1401 1236.55 1354.65 
692 0.2292 0.2292 0 -0.00895449 -0.00895449 -0.000158799 89.5449 609.468 1687.86 
732 0.226 0.226 0 -0.00887197 -0.00887197 -5.6445e-05 88.7197 1925.32 2686.91 
772 0.2458 0.2458 0 -0.00992313 -0.00992313 -0.000126819 99.2313 4130.76 6026.04 
812 0.2418 0.2418 0 -0.00977829 -0.00977829 8.01164e-05 97.7829 3703.91 5246.53 
852 0.2278 0.2278 0 -0.00894252 -0.00894252 3.55225e-05 89.4252 3393.38 4502.2 
892 0.2238 0.2238 0 -0.00867492 -0.00867492 -9.53913e-05 86.7492 1436.49 2678.71 
932 0.2154 0.2154 0 -0.00833212 -0.00833212 -6.85186e-05 83.3212 -112.352 270.407 
972 0.7522 0.7522 0 0.00334004 0.00334004 -0.000177802 297.694 11138.1 13734.4 
1012 0.8716 0.8716 0 0.0019946 0.0019946 0.000255416 344.233 12002.5 16136.4 
1052 0.8894 0.8894 0 0.0021462 0.0021462 -6.44401e-05 349.94 10269.9 14038.1 
1092 0.824 0.824 0 0.00190952 0.00190952 7.97966e-05 326.355 12246.6 17202.7 
1132 0.7388 0.7388 0 0.00206857 0.00206857 -5.80918e-05 290.709 9446.47 12302.7 
1172 0.6564 0.6564 0 0.00188876 0.00188876 0.000295733 261.072 8956.93 13325.8 