ITEM: TIMESTEP
25000
ITEM: NUMBER OF SURFS
1260
ITEM: BOX BOUNDS oo rr pp
0 0.3
0 0.3
-0.5 0.5
ITEM: SURFS id f_4[1] f_4[2] f_4[3] f_4[4] f_4[5] f_4[6] f_4[7] f_4[8] f_4[9] 
1 0.0318 0.0318 0 6.0117e-05 6.0117e-05 -5.83852e-06 24.8514 5000.85 7177.9 
41 9.117 9.117 0 0.0387518 0.0387518 9.19472e-05 387.518 30567.4 42152 
81 10.2056 10.2056 0 0.0423974 0.0423974 2.72185e-05 423.974 26754 37564.3 
121 10.5936 10.5936 0 0.0438639 0.0438639 1.41246e-05 438.639 26905.3 37204.5 
161 10.5512 10.5512 0 0.0436788 0.0436788 1.14315e-05 436.788 25735.9 35314.6 
201 10.5762 10.5762 0 0.0435569 0.0435569 -0.000150581 435.569 24532.3 34307.4 
241 10.2842 10.2842 0 0.0428168 0.0428168 3.40155e-05 428.168 26836.9 37300.8 
281 9.5476 9.5476 0 0.0401562 0.0401562 1.26199e-05 401.562 29063.5 40080.2 
321 0.1438 0.1438 0 0.00063964 0.00063964 -3.53645e-06 126.041 19878.3 28805.6 
361 0.6254 0.6254 0 0.000839531 0.000839531 2.41719e-05 27.2139 4736.92 6257.67 
401 0.7534 0.7534 0 0.000734832 0.000734832 -5.01078e-05 33.62 4993.31 6625.31 
441 0.8504 0.8504 0 0.000709192 0.000709192 -2.36961e-05 37.6048 5423.65 7330.07 
481 0.8792 0.8792 0 0.000669501 0.000669501 -1.7015e-05 38.7969 5024.75 6791.44 
521 0.9292 0.9292 0 0.000683527 0.000683527 -4.09854e-06 40.6792 5240.03 7142.26 
561 0.8968 0.8968 0 0.000635105 0.000635105 -2.57667e-06 39.2292 4636.42 6419.37 
601 0.8234 0.8234 0 0.000709966 0.000709966 3.0507e-05 36.5564 4525.11 6231.77 
641 0.0058 0.0058 0 -1.37166e-05 -1.37166e-05 -1.01718e-06 4.0153 692.793 576.065 
681 0.1064 0.1064 0 -0.000433297 -0.000433297 -1.60409e-05 4.33297 324.887 508.747 
721 0.168 0.168 0 -0.000707862 -0.000707862 -9.90211e-06 7.07862 563.326 829.669 
761 0.1974 0.1974 0 -0.000858915 -0.000858915 -5.2026e-06 8.58915 795.819 1053.24 
801 0.2102 0.2102 0 -0.000904628 -0.000904628 7.68511e-06 9.04628 680.377 1033.31 
841 0.1884 0.1884 0 -0.000789235 -0.000789235 1.66998e-05 7.89235 568.971 941.136 
881 0.1592 0.1592 0 -0.000651577 -0.000651577 3.23662e-05 6.51577 559.109 810.622 
921 0.1018 0.1018 0 -0.000390246 -0.000390246 -1.32695e-05 3.90246 368.679 521.314 
961 0.0294 0.0294 0 3.88885e-05 3.88885e-05 -1.26489e-05 27.4262 4565.28 6764.03 
1001 0.8806 0.8806 0 0.000679666 0.000679666 1.32281e-05 38.4585 4755.99 6586.73 
1041 0.913 0.913 0 0.000624819 0.000624819 -1.29001e-05 39.8594 4595.48 6544.98 
1081 0.909 0.909 0 0.000692777 0.000692777 -2.02473e-05 39.7265 4831.59 6693.28 
1121 0.8646 0.8646 0 0.000717975 0.000717975 4.59925e-05 37.7994 5051.16 6909.19 
1161 0.8272 0.8272 0 0.000725211 0.000725211 1.62026e-06 36.9251 5347.82 7218.3 
1201 0.7364 0.7364 0 0.000804089 0.000804089 1.29934e-05 33.022 5349.11 7079.17 
1241 0.5778 0.5778 0 0.000829854 0.000829854 3.59936e-05 24.476 4338.75 5861.87 
2 0.0312 0.0312 0 6.86468e-05 6.86468e-05 7.45461e-06 23.6875 2998.34 4788.81 
42 9.119 9.119 0 0.0385094 0.0385094 0.000119601 385.094 30547.9 42478.1 
82 10.2728 10.2728 0 0.0427891 0.0427891 -9.32207e-05 427.891 28642.5 38737.7 
122 10.6712 10.6712 0 0.0440694 0.0440694 -2.30618e-06 440.694 26323.4 36422.4 
162 10.6876 10.6876 0 0.0441061 0.0441061 -2.96287e-06 441.061 25773.1 36225 
202 10.6734 10.6734 0 0.0441426 0.0441426 -6.65024e-05 441.426 25819.3 35847 
242 10.2442 10.2442 0 0.0425298 0.0425298 0.000131972 425.298 26776.2 37213.6 
282 9.438 9.438 0 0.0398084 0.0398084 -2.34161e-05 398.084 29602.1 41182.1 
322 0.1244 0.1244 0 0.000545384 0.000545384 -1.5974e-06 108.754 16961.3 22941.7 
362 0.6144 0.6144 0 0.000862741 0.000862741 -4.33097e-06 26.9314 4659.88 6259.63 
402 0.7466 0.7466 0 0.00077756 0.00077756 -2.35859e-05 33.7586 5499.88 7318.8 
442 0.8218 0.8218 0 0.000740792 0.000740792 -5.22061e-05 36.7291 5283.6 7110.61 
482 0.8854 0.8854 0 0.000663677 0.000663677 -3.84294e-06 38.626 5254.71 6985.83 
522 0.9162 0.9162 0 0.000592956 0.000592956 9.62648e-08 40.68 5168.41 6942.47 
562 0.9006 0.9006 0 0.000663069 0.000663069 2.31074e-05 39.2955 4611.62 6439.69 
602 0.8426 0.8426 0 0.000704702 0.000704702 -2.37489e-05 37.0615 4480.88 6325.62 
642 0.0042 0.0042 0 -9.06653e-06 -9.06653e-06 1.69822e-06 2.65365 310.408 312.501 
682 0.1162 0.1162 0 -0.000463753 -0.000463753 5.55695e-06 4.63753 387.099 588.963 
722 0.1768 0.1768 0 -0.000753301 -0.000753301 -8.46996e-06 7.53301 693.307 952.673 
762 0.2044 0.2044 0 -0.000871719 -0.000871719 -5.97577e-06 8.71719 574.68 852.491 
802 0.2162 0.2162 0 -0.000906383 -0.000906383 4.96982e-06 9.06383 711.128 1102.38 
842 0.2088 0.2088 0 -0.000898543 -0.000898543 1.14216e-05 8.98543 620.281 901.348 
882 0.1694 0.1694 0 -0.000687054 -0.000687054 -1.18837e-05 6.87054 555.076 814.189 
922 0.0964 0.0964 0 -0.000390094 -0.000390094 -2.06923e-06 3.90094 256.942 470.632 
962 0.6 0.6 0 0.000931573 0.000931573 -1.72555e-05 27.3605 4674.52 6060.1 
1002 0.88 0.88 0 0.000697598 0.000697598 -3.32596e-05 38.6987 4713.7 6617.48 
1042 0.8896 0.8896 0 0.000640006 0.000640006 -4.35977e-05 39.1423 4826.05 6546.78 
1082 0.9176 0.9176 0 0.000696247 0.000696247 4.19582e-05 40.0211 5199.78 7152.87 
1122 0.8512 0.8512 0 0.000677375 0.000677375 -2.14895e-05 37.5135 5095.83 6825.76 
1162 0.8086 0.8086 0 0.000753145 0.000753145 2.62119e-05 36.094 5017.13 6696.53 
1202 0.722 0.722 0 0.000769843 0.000769843 -4.82539e-05 32.1092 4935.71 6486.83 
1242 0.5854 0.5854 0 0.000912345 0.000912345 -5.62009e-06 25.3474 4343.1 5971.97 
3 0.0404 0.0404 0 0.000118056 0.000118056 -5.28392e-06 31.678 5482.63 8301.03 
43 9.2792 9.2792 0 0.0392401 0.0392401 -0.000131034 392.401 30151 42149.7 
83 10.2646 10.2646 0 0.0427535 0.0427535 2.40165e-05 427.535 26909.7 37603.5 
123 10.6076 10.6076 0 0.0439301 0.0439301 -4.8176e-05 439.301 26500.2 36617.7 
163 10.7044 10.7044 0 0.0442548 0.0442548 -8.26581e-05 442.548 25890.2 35605.6 
203 10.54 10.54 0 0.0435986 0.0435986 0.000122392 435.986 25136.1 34264.3 
243 10.2584 10.2584 0 0.0426023 0.0426023 -8.33055e-05 426.023 27461.4 38508.3 
283 9.4106 9.4106 0 0.0396991 0.0396991 9.31958e-05 396.991 29504.1 40823.6 
323 0.1002 0.1002 0 0.000427748 0.000427748 -3.60157e-06 89.6015 13005.5 18747.1 
363 0.6336 0.6336 0 0.00081305 0.00081305 -6.53004e-06 27.7554 4878.24 6679.14 
403 0.7708 0.7708 0 0.000730654 0.000730654 -5.50445e-06 34.2905 5034.22 6756.78 
443 0.8404 0.8404 0 0.000717825 0.000717825 -1.69216e-05 37.1742 5380.78 7325.76 
483 0.8702 0.8702 0 0.000673902 0.000673902 -1.99948e-05 37.8653 4848.51 6716.29 
523 0.907 0.907 0 0.000706738 0.000706738 -9.00098e-05 39.4877 4820.75 6592.42 
563 0.909 0.909 0 0.000586181 0.000586181 1.70624e-05 39.9138 4760.76 6392.52 
603 0.8228 0.8228 0 0.00068471 0.00068471 -1.38145e-05 35.9706 4465.36 5828.23 
643 0.0046 0.0046 0 -1.35645e-05 -1.35645e-05 2.18994e-06 3.15615 -90.1695 98.9455 
683 0.1134 0.1134 0 -0.000466661 -0.000466661 1.78877e-05 4.66661 366.946 506.54 
723 0.1804 0.1804 0 -0.000769573 -0.000769573 1.96718e-05 7.69573 634.556 904.746 
763 0.1928 0.1928 0 -0.000813992 -0.000813992 -1.11066e-05 8.13992 749.606 1139.61 
803 0.2126 0.2126 0 -0.000896335 -0.000896335 -5.22399e-06 8.96335 695.484 1016.95 
843 0.2012 0.2012 0 -0.000857968 -0.000857968 9.52706e-06 8.57968 576.651 867.944 
883 0.1628 0.1628 0 -0.000682278 -0.000682278 -5.93852e-06 6.82278 483.635 727.621 
923 0.0952 0.0952 0 -0.00038443 -0.00038443 7.32596e-06 3.8443 364.566 580.055 
963 0.5982 0.5982 0 0.000914934 0.000914934 2.5591e-05 27.0697 4632.8 6133.96 
1003 0.873 0.873 0 0.000692176 0.000692176 2.10273e-05 37.8732 4607.83 6359.19 
1043 0.9038 0.9038 0 0.000568599 0.000568599 2.30653e-05 38.9187 4704.34 6448.79 
1083 0.891 0.891 0 0.000623562 0.000623562 3.31783e-05 39.4888 5052.66 6972.41 
1123 0.87 0.87 0 0.000703466 0.000703466 -8.01637e-06 38.6147 5189.42 7061.68 
1163 0.821 0.821 0 0.00074296 0.00074296 -1.19752e-05 36.6064 5311.51 7034.02 
1203 0.7138 0.7138 0 0.00081151 0.00081151 -1.20251e-06 32.095 4970.91 6697.43 
1243 0.5476 0.5476 0 0.000795109 0.000795109 -4.27569e-05 23.2935 4018.47 5507.19 
4 0.0466 0.0466 0 0.000134736 0.000134736 -9.0713e-06 37.28 5856.15 8100.74 
44 9.3164 9.3164 0 0.0392881 0.0392881 -9.80499e-05 392.881 29554.9 40829.9 
84 10.3354 10.3354 0 0.0429116 0.0429116 -4.17314e-06 429.116 27528.1 38084.5 
124 10.6288 10.6288 0 0.044028 0.044028 2.96124e-05 440.28 25953.6 35785.5 
164 10.668 10.668 0 0.0440508 0.0440508 -9.88625e-06 440.508 25869.8 36108.3 
204 10.6998 10.6998 0 0.0438872 0.0438872 5.20444e-05 438.872 26218.3 36062.4 
244 10.3408 10.3408 0 0.0429912 0.0429912 6.35369e-05 429.912 27228.9 37449.6 
284 9.4324 9.4324 0 0.0398232 0.0398232 -0.000107776 398.232 29241.3 40376.5 
324 0.0946 0.0946 0 0.000386722 0.000386722 -1.33212e-05 79.4835 14217.7 19737.1 
364 0.6428 0.6428 0 0.000806876 0.000806876 -1.20989e-05 28.3172 4571.81 6171.77 
404 0.7508 0.7508 0 0.000759866 0.000759866 3.50637e-05 33.168 5265.84 6918.28 
444 0.8336 0.8336 0 0.000667033 0.000667033 1.69461e-05 37.3543 5414.76 7099.68 
484 0.8834 0.8834 0 0.000669489 0.000669489 5.53612e-05 38.8143 5112.08 7008.77 
524 0.9146 0.9146 0 0.000621936 0.000621936 -4.31741e-05 40.1774 5102.58 6975.5 
564 0.9164 0.9164 0 0.000695221 0.000695221 1.87071e-05 39.8572 4793.19 6624.13 
604 0.838 0.838 0 0.000693753 0.000693753 4.65097e-06 37.1827 4656.73 6282.5 
644 0.0042 0.0042 0 -1.21356e-05 -1.21356e-05 4.7867e-07 2.71029 88.0788 197.823 
684 0.1314 0.1314 0 -0.000554994 -0.000554994 5.23195e-06 5.54994 464.122 657.223 
724 0.182 0.182 0 -0.000760249 -0.000760249 -5.05413e-06 7.60249 627.405 908.632 
764 0.2156 0.2156 0 -0.000937252 -0.000937252 4.21359e-06 9.37252 704.951 1061.75 
804 0.2202 0.2202 0 -0.000939401 -0.000939401 9.73478e-06 9.39401 793.201 1097.64 
844 0.1982 0.1982 0 -0.000839879 -0.000839879 4.16932e-06 8.39879 713.973 1045.19 
884 0.1542 0.1542 0 -0.000637784 -0.000637784 -2.38433e-05 6.37784 470.828 682.371 
924 0.0916 0.0916 0 -0.000353348 -0.000353348 -1.92971e-06 3.53348 299.772 484.873 
964 0.6356 0.6356 0 0.000904789 0.000904789 1.88426e-05 28.7867 4449.08 5771.42 
1004 0.8678 0.8678 0 0.000614811 0.000614811 2.26553e-05 37.9298 4370.87 5934.49 
1044 0.9258 0.9258 0 0.000632495 0.000632495 1.99899e-05 40.6513 4567.99 6331.86 
1084 0.9022 0.9022 0 0.000602755 0.000602755 -3.55763e-05 39.8838 5137.28 6979.21 
1124 0.8584 0.8584 0 0.000705103 0.000705103 -3.65448e-05 37.9594 5190.22 7097.71 
1164 0.7922 0.7922 0 0.000703114 0.000703114 3.7028e-05 35.2728 5137.4 6813.57 
1204 0.7178 0.7178 0 0.000799637 0.000799637 1.9214e-06 31.9421 5056.18 6779.99 
1244 0.5546 0.5546 0 0.000814885 0.000814885 1.44107e-05 23.3208 4047.61 5466.19 
5 0.054 0.054 0 0.000177695 0.000177695 3.60689e-06 44.2154 7545.18 10294.9 
45 9.2662 9.2662 0 0.0390406 0.0390406 -3.67653e-05 390.406 29916.5 41927.2 
85 10.2094 10.2094 0 0.0423941 0.0423941 0.000117393 423.941 26896.7 37807.9 
125 10.6226 10.6226 0 0.0437883 0.0437883 3.07274e-05 437.883 25756.3 35670.3 
165 10.6964 10.6964 0 0.0440943 0.0440943 -4.39593e-06 440.943 25253.5 35170.9 
205 10.6746 10.6746 0 0.0439238 0.0439238 0.000106882 439.238 25111.3 34668 
245 10.25 10.25 0 0.0424405 0.0424405 7.72184e-05 424.405 27088.2 37779.5 
285 9.3266 9.3266 0 0.0392427 0.0392427 -8.74281e-07 392.427 29249.6 40448.1 
325 0.0746 0.0746 0 0.000286615 0.000286615 1.89453e-06 64.038 9544.69 14935.6 
365 0.6376 0.6376 0 0.000831219 0.000831219 1.29091e-06 27.9724 4579.94 6284.11 
405 0.7742 0.7742 0 0.00082486 0.00082486 -1.63259e-05 34.1488 5568.84 7346 
445 0.8286 0.8286 0 0.000707913 0.000707913 -4.55587e-05 36.7076 5449.08 7211.56 
485 0.875 0.875 0 0.000638903 0.000638903 2.72697e-05 38.5277 4990.3 6736.85 
525 0.909 0.909 0 0.000677527 0.000677527 1.62708e-05 39.762 4777.64 6552.57 
565 0.9118 0.9118 0 0.000604513 0.000604513 -3.82298e-05 39.7184 4475.1 6265.92 
605 0.8306 0.8306 0 0.000702852 0.000702852 -3.77666e-06 36.4167 4585.9 6112.79 
645 0.002 0.002 0 -6.15543e-06 -6.15543e-06 1.35492e-07 1.27895 73.8115 144.497 
685 0.1184 0.1184 0 -0.000478137 -0.000478137 -1.75731e-05 4.78137 480.174 685.748 
725 0.1714 0.1714 0 -0.000718613 -0.000718613 -3.84662e-06 7.18613 627.236 923.39 
765 0.202 0.202 0 -0.000834123 -0.000834123 -4.72657e-06 8.34123 652.52 924.007 
805 0.2102 0.2102 0 -0.00089963 -0.00089963 8.56318e-06 8.9963 725.419 1078.49 
845 0.1892 0.1892 0 -0.00080962 -0.00080962 -1.50976e-05 8.0962 595.045 890.478 
885 0.1558 0.1558 0 -0.000643471 -0.000643471 -1.18236e-05 6.43471 521.59 809.072 
925 0.0864 0.0864 0 -0.000340482 -0.000340482 -4.56392e-06 3.40482 252.423 393.507 
965 0.6404 0.6404 0 0.000848103 0.000848103 -5.10564e-06 28.5138 4515.02 5893.59 
1005 0.8774 0.8774 0 0.000667374 0.000667374 -4.31782e-06 38.6897 4858.57 6535.22 
1045 0.9094 0.9094 0 0.000659462 0.000659462 3.61213e-05 39.7604 5055.36 7034.83 
1085 0.8828 0.8828 0 0.000645412 0.000645412 1.63848e-05 38.9724 5038.12 6901.08 
1125 0.8628 0.8628 0 0.000641718 0.000641718 -1.25511e-05 38.0499 5078.92 6954.22 
1165 0.822 0.822 0 0.000715075 0.000715075 -3.36337e-05 36.6986 5073.76 6924.79 
1205 0.7062 0.7062 0 0.000773659 0.000773659 -4.17735e-06 31.0479 5091.18 6752.52 
1245 0.5754 0.5754 0 0.000881932 0.000881932 -2.01859e-05 24.2099 4049.87 5514.68 
6 0.0608 0.0608 0 0.0002234 0.0002234 -1.4402e-05 51.5943 9084.67 12268.6 
46 9.4798 9.4798 0 0.0399825 0.0399825 0.000260079 399.825 30098.6 41892.3 
86 10.3522 10.3522 0 0.0429681 0.0429681 2.30695e-05 429.681 26402.7 37290.1 
126 10.5274 10.5274 0 0.0432811 0.0432811 5.00522e-05 432.811 25120.2 35420.8 
166 10.6318 10.6318 0 0.043964 0.043964 6.15121e-05 439.64 26081.6 35823 
206 10.6206 10.6206 0 0.0437827 0.0437827 -3.18279e-05 437.827 25678.6 35250 
246 10.2824 10.2824 0 0.0426543 0.0426543 6.55818e-06 426.543 26392.8 37155 
286 9.3258 9.3258 0 0.0392589 0.0392589 4.16691e-05 392.589 29477.9 40736 
326 0.0648 0.0648 0 0.000221595 0.000221595 -8.09996e-06 53.2028 7834.83 11466.5 
366 0.664 0.664 0 0.000881661 0.000881661 -6.77496e-06 29.4844 5038.47 6522.91 
406 0.7748 0.7748 0 0.000765656 0.000765656 8.82773e-06 34.7166 5112.7 6745.62 
446 0.834 0.834 0 0.000698591 0.000698591 -2.85371e-06 36.5298 5240.27 7106.47 
486 0.9094 0.9094 0 0.000658288 0.000658288 2.89408e-05 39.9275 4986.22 6791.39 
526 0.8978 0.8978 0 0.000626893 0.000626893 2.84555e-05 39.2969 4837.62 6705.16 
566 0.897 0.897 0 0.000630801 0.000630801 -4.75121e-05 39.3505 4404.97 6120.19 
606 0.8246 0.8246 0 0.000760401 0.000760401 2.44868e-05 36.3214 4676.17 6297.86 
646 0.0022 0.0022 0 -7.43332e-06 -7.43332e-06 3.15706e-07 1.51445 166.534 199.07 
686 0.124 0.124 0 -0.000499463 -0.000499463 -1.48879e-07 4.99463 385.593 636.987 
726 0.1726 0.1726 0 -0.000730251 -0.000730251 2.15088e-05 7.30251 613.928 896.298 
766 0.2194 0.2194 0 -0.000928848 -0.000928848 -2.00197e-06 9.28848 715.059 1176.61 
806 0.2148 0.2148 0 -0.000937158 -0.000937158 3.43191e-06 9.37158 595.892 944.908 
846 0.1828 0.1828 0 -0.00078801 -0.00078801 -8.77826e-06 7.8801 617.787 889.791 
886 0.1546 0.1546 0 -0.00063787 -0.00063787 8.15898e-06 6.3787 480.064 753.956 
926 0.0904 0.0904 0 -0.000346569 -0.000346569 -1.88518e-06 3.46569 237.368 402.757 
966 0.646 0.646 0 0.000836839 0.000836839 7.54669e-06 29.1458 4247.91 5598.4 
1006 0.8628 0.8628 0 0.000639151 0.000639151 -7.68464e-06 37.4617 4544.35 6010.87 
1046 0.9086 0.9086 0 0.000658324 0.000658324 -8.953e-06 40.1069 4782.84 6410.64 
1086 0.9024 0.9024 0 0.000665108 0.000665108 1.27814e-05 39.9629 4942.94 6772.98 
1126 0.863 0.863 0 0.00068812 0.00068812 3.24807e-05 37.7245 5189.29 6929.55 
1166 0.8158 0.8158 0 0.000735163 0.000735163 2.54177e-05 36.7547 5385.12 7346.54 
1206 0.702 0.702 0 0.000783057 0.000783057 6.26677e-06 31.4981 5118.76 6701.26 
1246 0.5532 0.5532 0 0.000863533 0.000863533 -2.74949e-05 23.5746 4354.82 5839.88 
7 0.0784 0.0784 0 0.000283079 0.000283079 -1.74965e-06 62.5935 9122.32 14239.9 
47 9.3988 9.3988 0 0.0396563 0.0396563 -5.50253e-05 396.563 29256.8 40710.7 
87 10.2892 10.2892 0 0.0428058 0.0428058 -3.03959e-05 428.058 26865.4 36705.3 
127 10.7342 10.7342 0 0.0443477 0.0443477 -4.14338e-05 443.477 26287.3 35632.5 
167 10.6914 10.6914 0 0.0441198 0.0441198 -4.47417e-05 441.198 25710.9 35627.1 
207 10.554 10.554 0 0.0436025 0.0436025 -4.3917e-05 436.025 25458.3 35016.4 
247 10.2598 10.2598 0 0.0425259 0.0425259 -9.92513e-05 425.259 27060 37587.3 
287 9.3706 9.3706 0 0.0394568 0.0394568 3.23025e-05 394.568 30478.4 42059.7 
327 0.0532 0.0532 0 0.000167578 0.000167578 9.7441e-06 43.9785 6333.75 9213.38 
367 0.668 0.668 0 0.000841067 0.000841067 -2.80972e-06 29.075 4720.34 6351.57 
407 0.7644 0.7644 0 0.000728197 0.000728197 -1.1674e-05 33.8054 5048.25 6729.7 
447 0.8476 0.8476 0 0.000683303 0.000683303 -3.24249e-05 37.4632 5298.69 7181.03 
487 0.8784 0.8784 0 0.000646997 0.000646997 -2.33161e-05 39.1189 4947.53 6830.26 
527 0.8986 0.8986 0 0.000696662 0.000696662 -5.1873e-05 39.8622 4931.4 6708.56 
567 0.9008 0.9008 0 0.000656902 0.000656902 -4.92123e-05 39.7481 5025.32 6850.16 
607 0.8172 0.8172 0 0.000684603 0.000684603 4.05838e-05 35.3893 4393.64 5994.66 
647 0.0504 0.0504 0 -0.000179287 -0.000179287 -1.27306e-05 1.79287 95.7107 195.165 
687 0.1222 0.1222 0 -0.000501982 -0.000501982 1.60202e-05 5.01982 397.395 660.525 
727 0.1688 0.1688 0 -0.000724334 -0.000724334 -1.1591e-05 7.24334 553.925 682.313 
767 0.2132 0.2132 0 -0.000908219 -0.000908219 -5.85583e-06 9.08219 746.434 995.968 
807 0.217 0.217 0 -0.000961621 -0.000961621 -6.89356e-06 9.61621 837.104 1258.06 
847 0.1958 0.1958 0 -0.000832552 -0.000832552 -1.2347e-05 8.32552 668.157 1063.03 
887 0.1506 0.1506 0 -0.00061544 -0.00061544 -1.14491e-05 6.1544 508.115 713.374 
927 0.083 0.083 0 -0.00031875 -0.00031875 1.53072e-05 3.1875 254.413 356.438 
967 0.68 0.68 0 0.000849323 0.000849323 2.02692e-05 29.7759 4334.97 5803.33 
1007 0.883 0.883 0 0.000702024 0.000702024 4.21977e-05 38.6345 4628.8 6295.54 
1047 0.9276 0.9276 0 0.00063844 0.00063844 3.46915e-06 40.3587 4802.71 6752.76 
1087 0.8926 0.8926 0 0.000651874 0.000651874 -3.86177e-05 39.6485 4841.37 6601.51 
1127 0.861 0.861 0 0.000678223 0.000678223 -1.06754e-05 38.1208 4843.85 6696.27 
1167 0.793 0.793 0 0.000727527 0.000727527 -2.17288e-05 35.5034 5121.98 6851.95 
1207 0.7084 0.7084 0 0.000822708 0.000822708 -2.16175e-06 31.5121 4959.02 6537.47 
1247 0.5442 0.5442 0 0.000873391 0.000873391 2.0707e-05 22.7582 4084.39 5402.19 
8 0.0924 0.0924 0 0.000361253 0.000361253 -2.13158e-05 79.82 12322 17341.6 
48 9.433 9.433 0 0.039764 0.039764 -6.30625e-06 397.64 30499.8 41276.9 
88 10.216 10.216 0 0.0425053 0.0425053 -0.000191452 425.053 26926.2 37353.9 
128 10.6632 10.6632 0 0.0439885 0.0439885 9.19866e-05 439.885 25783.4 35739.8 
168 10.7086 10.7086 0 0.0442607 0.0442607 -0.000197198 442.607 26597.2 36502 
208 10.5316 10.5316 0 0.0435082 0.0435082 5.69374e-05 435.082 25399.9 35364.5 
248 10.2552 10.2552 0 0.0425766 0.0425766 8.22295e-05 425.766 27128.3 37248.5 
288 9.2206 9.2206 0 0.0388726 0.0388726 3.86879e-05 388.726 30489.7 41661.1 
328 0.0486 0.0486 0 0.000142998 0.000142998 -7.0821e-06 39.5953 6316.16 10225 
368 0.6444 0.6444 0 0.000819271 0.000819271 2.14169e-05 27.9288 4635.99 6112.86 
408 0.7694 0.7694 0 0.000735494 0.000735494 8.95819e-06 34.5238 5240.79 6994.51 
448 0.8566 0.8566 0 0.00068834 0.00068834 -2.55276e-05 38.0184 5230.54 7002.58 
488 0.8734 0.8734 0 0.000648149 0.000648149 3.41248e-07 38.5449 5282.27 7099.62 
528 0.9078 0.9078 0 0.000660027 0.000660027 2.79992e-05 39.9046 4797.71 6692.68 
568 0.8984 0.8984 0 0.000654927 0.000654927 8.76221e-05 39.1108 4529.08 6448.55 
608 0.8166 0.8166 0 0.000718422 0.000718422 -3.54094e-05 36.0808 4543.98 6050.36 
648 0.0576 0.0576 0 -0.000196996 -0.000196996 -2.93158e-06 1.96996 99.1188 183.016 
688 0.1216 0.1216 0 -0.000502756 -0.000502756 6.7504e-07 5.02756 276.199 458.668 
728 0.1854 0.1854 0 -0.000798091 -0.000798091 -9.54564e-06 7.98091 625.679 933.321 
768 0.2162 0.2162 0 -0.00092224 -0.00092224 1.13934e-05 9.2224 814.588 1107.85 
808 0.2168 0.2168 0 -0.000955659 -0.000955659 4.27601e-05 9.55659 768.82 974.909 
848 0.198 0.198 0 -0.000832569 -0.000832569 -1.3265e-05 8.32569 496.317 738.827 
888 0.1542 0.1542 0 -0.000637828 -0.000637828 3.889e-06 6.37828 489.842 753.941 
928 0.0922 0.0922 0 -0.00035639 -0.00035639 9.61036e-06 3.5639 221.465 346.987 
968 0.6944 0.6944 0 0.000847078 0.000847078 1.64594e-05 30.902 4517.21 5918.95 
1008 0.8858 0.8858 0 0.000750293 0.000750293 2.47016e-05 38.6332 5084.55 6942.19 
1048 0.9184 0.9184 0 0.000640993 0.000640993 -7.82666e-06 40.252 5000.09 6835.23 
1088 0.8748 0.8748 0 0.000645281 0.000645281 -7.74104e-06 38.6546 4808.69 6675.79 
1128 0.8604 0.8604 0 0.000649893 0.000649893 5.2462e-06 37.8596 5198.71 7033.89 
1168 0.8144 0.8144 0 0.000785475 0.000785475 1.32018e-05 36.2652 5518.75 7400.39 
1208 0.741 0.741 0 0.000864023 0.000864023 3.26161e-05 33.0878 5451.03 7146.44 
1248 0.5546 0.5546 0 0.000833174 0.000833174 -2.73007e-05 23.3484 3961.31 5418.06 
9 0.1044 0.1044 0 0.000445135 0.000445135 -1.51486e-05 90.6202 15906 21167 
49 9.4798 9.4798 0 0.039818 0.039818 0.000161773 398.18 29987.9 41482.6 
89 10.3152 10.3152 0 0.0428519 0.0428519 -7.10449e-05 428.519 27260.5 37366 
129 10.6074 10.6074 0 0.043828 0.043828 -8.43765e-06 438.28 25915 35939.3 
169 10.5886 10.5886 0 0.0435534 0.0435534 -0.000119178 435.534 25129.9 34856.7 
209 10.6204 10.6204 0 0.0439445 0.0439445 -0.000128727 439.445 25826.6 35840.1 
249 10.1448 10.1448 0 0.0422775 0.0422775 -6.31732e-05 422.775 27203.8 37120.3 
289 9.1942 9.1942 0 0.0387449 0.0387449 -0.000111847 387.449 29785.4 40764.6 
329 0.0354 0.0354 0 0.000102543 0.000102543 3.03115e-06 30.308 5108.19 7914.87 
369 0.6594 0.6594 0 0.000807347 0.000807347 3.49439e-05 28.8838 4625.63 6313.41 
409 0.7776 0.7776 0 0.00074987 0.00074987 -7.34845e-06 34.5166 5169.58 6987.09 
449 0.8742 0.8742 0 0.000742769 0.000742769 3.37102e-05 38.5811 5509.99 7475.89 
489 0.896 0.896 0 0.00068221 0.00068221 -1.2454e-05 39.3569 4920.81 6737.28 
529 0.9072 0.9072 0 0.000627724 0.000627724 3.68399e-05 40.0523 4815.03 6490.92 
569 0.8918 0.8918 0 0.000673925 0.000673925 -2.84614e-05 39.1789 4660.56 6400.58 
609 0.8106 0.8106 0 0.000764929 0.000764929 2.31126e-05 35.3481 4572.29 6164.73 
649 0.058 0.058 0 -0.000198454 -0.000198454 -3.54146e-06 1.98454 118.895 242.262 
689 0.1294 0.1294 0 -0.000526978 -0.000526978 1.188e-05 5.26978 407.388 605.513 
729 0.1804 0.1804 0 -0.000769807 -0.000769807 2.37528e-05 7.69807 616.733 919.678 
769 0.2066 0.2066 0 -0.000901767 -0.000901767 3.69406e-07 9.01767 783.552 1198.21 
809 0.2198 0.2198 0 -0.000956726 -0.000956726 9.21313e-06 9.56726 814.842 1144.22 
849 0.1892 0.1892 0 -0.000811086 -0.000811086 2.24278e-05 8.11086 643.512 926.453 
889 0.1454 0.1454 0 -0.000609966 -0.000609966 1.26244e-05 6.09966 423.046 704.758 
929 0.0714 0.0714 0 -0.000282949 -0.000282949 7.76222e-08 2.82949 213.456 370.17 
969 0.7004 0.7004 0 0.000812122 0.000812122 -9.13896e-06 31.3162 4552.67 6116.39 
1009 0.8838 0.8838 0 0.000609915 0.000609915 -2.37944e-05 39.145 4523.2 6160.21 
1049 0.9136 0.9136 0 0.000588345 0.000588345 -1.11605e-05 40.5339 4792.53 6639.11 
1089 0.8948 0.8948 0 0.000643604 0.000643604 -2.50499e-05 39.4978 4977.77 6743.65 
1129 0.877 0.877 0 0.000688615 0.000688615 3.21048e-05 38.4025 5070.58 6897.83 
1169 0.8022 0.8022 0 0.000755617 0.000755617 2.01871e-05 35.563 5344.73 7191.14 
1209 0.7096 0.7096 0 0.000820734 0.000820734 1.39758e-05 32.1232 5496.59 7099.98 
1249 0.556 0.556 0 0.000909788 0.000909788 1.53859e-05 23.458 4133.49 5620.72 
10 0.13 0.13 0 0.000576067 0.000576067 4.55723e-06 112.15 22603.2 31354.2 
50 9.4686 9.4686 0 0.0397333 0.0397333 1.93244e-05 397.333 29518.8 40790.6 
90 10.367 10.367 0 0.0430554 0.0430554 6.5869e-05 430.554 27063.1 37732.4 
130 10.6072 10.6072 0 0.0438376 0.0438376 -2.68444e-05 438.376 26102.2 36120.5 
170 10.7488 10.7488 0 0.0444497 0.0444497 -5.89484e-05 444.497 25581.5 35390.8 
210 10.536 10.536 0 0.0434704 0.0434704 6.2237e-05 434.704 25878.7 35587.8 
250 10.1768 10.1768 0 0.0424145 0.0424145 0.000112843 424.145 27449.8 38121 
290 9.1934 9.1934 0 0.0389251 0.0389251 -4.59074e-05 389.251 29693.1 41375.6 
330 0.0306 0.0306 0 6.93627e-05 6.93627e-05 2.29374e-06 25.3118 3422.13 5216.42 
370 0.6456 0.6456 0 0.000769667 0.000769667 -3.38016e-07 28.8342 4758.92 6307.17 
410 0.7644 0.7644 0 0.000732659 0.000732659 5.58984e-05 33.8704 5165.3 6865.36 
450 0.8476 0.8476 0 0.000741104 0.000741104 -7.03419e-05 37.9057 5064.25 6923.01 
490 0.8852 0.8852 0 0.000692242 0.000692242 2.07996e-07 39.1708 4672.39 6418.73 
530 0.8748 0.8748 0 0.000565514 0.000565514 -1.7936e-05 38.5417 4546.16 6226.03 
570 0.908 0.908 0 0.000599328 0.000599328 5.49119e-05 39.8508 4785.98 6502.95 
610 0.7956 0.7956 0 0.000728762 0.000728762 -3.4165e-05 34.8566 4203.33 5736.02 
650 0.058 0.058 0 -0.000206197 -0.000206197 -6.55049e-06 2.06197 139.681 223.51 
690 0.1324 0.1324 0 -0.000563609 -0.000563609 1.00589e-05 5.63609 403.506 590.51 
730 0.1826 0.1826 0 -0.000770674 -0.000770674 2.41203e-05 7.70674 647.994 1000.84 
770 0.2098 0.2098 0 -0.000887179 -0.000887179 -2.44146e-05 8.87179 636.835 976.784 
810 0.2164 0.2164 0 -0.000934411 -0.000934411 8.53192e-06 9.34411 728.606 1160.4 
850 0.1912 0.1912 0 -0.000814059 -0.000814059 -7.23978e-07 8.14059 656.12 983.917 
890 0.1556 0.1556 0 -0.000665539 -0.000665539 -1.37001e-06 6.65539 420.428 641.983 
930 0.0746 0.0746 0 -0.000290935 -0.000290935 -3.23405e-06 2.90935 143.826 282.274 
970 0.6816 0.6816 0 0.000765316 0.000765316 1.24333e-05 30.4809 4334.34 5715.5 
1010 0.8776 0.8776 0 0.000657576 0.000657576 4.14039e-06 38.894 4691.96 6282.21 
1050 0.8826 0.8826 0 0.000617518 0.000617518 -1.01437e-05 38.7579 4718.74 6647.68 
1090 0.884 0.884 0 0.000613364 0.000613364 -1.62903e-05 39.1392 4799.95 6529.19 
1130 0.8622 0.8622 0 0.000667883 0.000667883 1.27715e-05 37.7813 5190.25 7047.41 
1170 0.7968 0.7968 0 0.000757579 0.000757579 -2.7991e-05 35.8076 5134.15 6980.97 
1210 0.6944 0.6944 0 0.000854174 0.000854174 7.90065e-06 31.0386 5262.19 7008.07 
1250 0.5422 0.5422 0 0.000856494 0.000856494 -5.21107e-06 22.5154 3565.98 5058.68 
11 0.1364 0.1364 0 0.00061162 0.00061162 7.97622e-06 119.725 20176.4 26787.9 
51 9.5456 9.5456 0 0.0401472 0.0401472 7.31258e-05 401.472 29538.2 40954.9 
91 10.3458 10.3458 0 0.0429754 0.0429754 7.18076e-05 429.754 27351 37619.8 
131 10.5844 10.5844 0 0.0436921 0.0436921 -1.96333e-05 436.921 25619 35870.9 
171 10.6806 10.6806 0 0.0441375 0.0441375 -0.000165576 441.375 25285.3 35705.9 
211 10.5782 10.5782 0 0.0435735 0.0435735 7.13059e-05 435.735 25672.7 35436 
251 10.2608 10.2608 0 0.0426057 0.0426057 4.02008e-05 426.057 27605.7 37923.1 
291 9.0078 9.0078 0 0.0381954 0.0381954 1.19717e-05 381.954 30050.3 41474.1 
331 0.031 0.031 0 5.53917e-05 5.53917e-05 -8.80573e-06 25.8188 3706.15 6816.58 
371 0.6544 0.6544 0 0.00080938 0.00080938 5.16815e-06 29.0698 4970.72 6649.37 
411 0.7686 0.7686 0 0.000781007 0.000781007 -1.09224e-05 34.8095 5606.52 7400.84 
451 0.8606 0.8606 0 0.000716261 0.000716261 -6.27725e-06 37.8264 5504.8 7489.94 
491 0.9022 0.9022 0 0.000591179 0.000591179 3.95064e-05 39.3762 4768.56 6600.07 
531 0.9332 0.9332 0 0.000639381 0.000639381 -1.13528e-05 40.7355 5122.59 6936.48 
571 0.8812 0.8812 0 0.000702982 0.000702982 -1.35637e-05 38.8728 4772.11 6559.17 
611 0.7976 0.7976 0 0.000738059 0.000738059 -1.51697e-05 35.1985 4641.85 6106.76 
651 0.0532 0.0532 0 -0.000195709 -0.000195709 -1.19257e-05 1.95709 145.181 247.825 
691 0.1332 0.1332 0 -0.000546119 -0.000546119 -1.08002e-05 5.46119 425.349 670.748 
731 0.1858 0.1858 0 -0.000793045 -0.000793045 1.06566e-05 7.93045 613.039 875.019 
771 0.22 0.22 0 -0.000932566 -0.000932566 5.06428e-06 9.32566 818.779 1133.33 
811 0.2134 0.2134 0 -0.000912649 -0.000912649 -7.51205e-06 9.12649 687.2 971.502 
851 0.1806 0.1806 0 -0.000785658 -0.000785658 -4.60731e-06 7.85658 595.916 911.955 
891 0.136 0.136 0 -0.00056558 -0.00056558 3.16477e-06 5.6558 373.179 588.889 
931 0.0732 0.0732 0 -0.000276554 -0.000276554 -6.06731e-07 2.76554 203.638 290.275 
971 0.7114 0.7114 0 0.000788358 0.000788358 2.28297e-06 31.4311 4259.03 5738.74 
1011 0.8656 0.8656 0 0.000652078 0.000652078 1.11685e-06 37.5756 4382.69 5980.37 
1051 0.8866 0.8866 0 0.000616552 0.000616552 -4.82999e-06 39.1184 4459.62 6095.35 
1091 0.9056 0.9056 0 0.000647768 0.000647768 -3.28174e-05 39.8026 4947.63 6859.44 
1131 0.8264 0.8264 0 0.000658468 0.000658468 2.92189e-05 36.4944 4955.54 6903.49 
1171 0.8016 0.8016 0 0.000778969 0.000778969 -1.98286e-06 35.8588 5306.31 7306.99 
1211 0.7066 0.7066 0 0.000800407 0.000800407 -3.21673e-06 31.3916 5243.25 6852.94 
1251 0.542 0.542 0 0.000901992 0.000901992 -9.40611e-06 22.4254 3705.35 5316.11 
12 0.1638 0.1638 0 0.000748278 0.000748278 1.14296e-05 145.71 21767.2 30352.5 
52 9.5706 9.5706 0 0.0403222 0.0403222 -1.23274e-07 403.222 29556.5 40503.2 
92 10.4352 10.4352 0 0.0433138 0.0433138 -1.55759e-05 433.138 27484.4 37998.7 
132 10.6882 10.6882 0 0.044231 0.044231 1.24009e-05 442.31 25943.6 35564.2 
172 10.7608 10.7608 0 0.0443137 0.0443137 0.000374994 443.137 25767 35798.5 
212 10.5362 10.5362 0 0.043521 0.043521 8.83825e-07 435.21 26702.7 36966.1 
252 10.2362 10.2362 0 0.0425951 0.0425951 6.87072e-05 425.951 27343.7 38175.3 
292 9.1094 9.1094 0 0.0385168 0.0385168 -2.8069e-05 385.168 30629 42159.5 
332 0.4948 0.4948 0 0.000818318 0.000818318 5.91017e-06 19.0051 2868.99 4578.42 
372 0.6674 0.6674 0 0.00083438 0.00083438 9.03609e-06 29.2701 4699.78 6433.32 
412 0.7936 0.7936 0 0.00072794 0.00072794 -3.50271e-05 35.4867 5449.59 7312.62 
452 0.8606 0.8606 0 0.000716221 0.000716221 -2.69099e-05 38.3385 5164.1 7000.46 
492 0.9022 0.9022 0 0.000678731 0.000678731 1.31431e-05 39.4953 5149.12 7149.37 
532 0.912 0.912 0 0.000660227 0.000660227 -3.68943e-05 40.1787 5245.81 6914.38 
572 0.8964 0.8964 0 0.000690546 0.000690546 1.94787e-05 39.4869 4843.82 6585.93 
612 0.7902 0.7902 0 0.000766054 0.000766054 4.35222e-06 34.5842 4499.33 6000.84 
652 0.0628 0.0628 0 -0.000231329 -0.000231329 -9.28853e-07 2.31329 138.539 246.478 
692 0.1398 0.1398 0 -0.000580282 -0.000580282 8.61173e-06 5.80282 536.439 794.012 