ITEM: TIMESTEP
25000
ITEM: NUMBER OF SURFS
1272
ITEM: BOX BOUNDS oo rr pp
0 0.3
0 0.3
-0.5 0.5
ITEM: SURFS id f_4[1] f_4[2] f_4[3] f_4[4] f_4[5] f_4[6] f_4[7] f_4[8] f_4[9] 
1 0.0012 0.0012 0 0.000934833 0.000934833 -0.000364293 123.331 65405.9 72712.5 
41 0.0448 0.0448 0 0.0442198 0.0442198 -0.00180327 442.198 62985 81480.3 
81 0.046 0.046 0 0.0491391 0.0491391 -0.000636107 491.391 55692.4 74225.2 
121 0.0534 0.0534 0 0.0495004 0.0495004 -0.00197514 495.004 55733.2 78676.3 
161 0.0396 0.0396 0 0.0384704 0.0384704 -0.00100054 384.704 50021.2 58531.1 
201 0.0436 0.0436 0 0.0434773 0.0434773 -0.000914392 434.773 48222.8 61984.2 
241 0.0372 0.0372 0 0.0372892 0.0372892 -0.000362611 372.892 47645.2 65145.1 
281 0.0392 0.0392 0 0.0400697 0.0400697 0.00131017 400.697 53848.6 67783.8 
321 0.0018 0.0018 0 0.00165549 0.00165549 -0.000114208 156.805 30956.3 37080.4 
361 0.0042 0.0042 0 0.00174708 0.00174708 -1.03636e-05 38.6848 7406.86 9344.12 
401 0.0058 0.0058 0 0.00102213 0.00102213 0.000271759 54.4185 5799.82 9925.13 
441 0.0042 0.0042 0 0.000486813 0.000486813 -0.000306325 40.8088 6212.7 5720.09 
481 0.0058 0.0058 0 0.000625741 0.000625741 -0.000643627 52.5514 8892.52 8505.73 
521 0.0064 0.0064 0 0.000540703 0.000540703 2.85217e-05 62.0719 5442.97 7509.05 
561 0.0046 0.0046 0 0.000695892 0.000695892 0.000322593 44.8367 5608.36 5382.07 
601 0.0034 0.0034 0 0.000980171 0.000980171 -0.000624171 33.7459 -347.252 907.527 
641 0.0004 0.0004 0 -4.24473e-05 -4.24473e-05 5.23921e-05 23.3669 2455.9 4623.1 
681 0.0012 0.0012 0 -0.000890839 -0.000890839 -6.36403e-05 8.90839 -340.865 -1329.28 
721 0.0016 0.0016 0 -0.00135518 -0.00135518 -0.000484515 13.5518 1911.19 58.7886 
761 0.0014 0.0014 0 -0.00130087 -0.00130087 2.20359e-05 13.0087 309.41 1476.32 
801 0.0006 0.0006 0 -0.000431617 -0.000431617 0.000185626 4.31617 570.195 952.734 
841 0.001 0.001 0 -0.000766047 -0.000766047 -0.000450085 7.66047 -136.489 65.2632 
881 0.0002 0.0002 0 -0.000212363 -0.000212363 0 2.12363 0 0 
921 0.0008 0.0008 0 -0.00048712 -0.00048712 -8.6341e-08 4.8712 785.454 866.698 
961 0 0 0 0 0 0 0 0 0 
1001 0.0032 0.0032 0 0.000991926 0.000991926 -0.000225932 26.2466 5052.61 5188.56 
1041 0.0046 0.0046 0 0.000723239 0.000723239 4.60632e-05 46.7562 4281.61 6510.69 
1081 0.0056 0.0056 0 0.000595451 0.000595451 0.000796932 50.0599 7946 7279.16 
1121 0.0058 0.0058 0 0.000644264 0.000644264 -0.000584907 57.7183 3657.73 6848.1 
1161 0.0062 0.0062 0 0.000628656 0.000628656 0.000711827 53.7946 3875.21 7090.07 
1201 0.0028 0.0028 0 0.000963361 0.000963361 -0.000443353 26.1271 6641.94 7673.77 
1241 0.003 0.003 0 0.00196173 0.00196173 -0.000224375 25.9003 8053.21 11067.7 
2 0.0002 0.0002 0 6.72741e-05 6.72741e-05 -0.000114357 15.7948 -5802.84 -3642.84 
42 0.0426 0.0426 0 0.042892 0.042892 -0.00215397 428.92 55159.7 81281.7 
82 0.0506 0.0506 0 0.0488821 0.0488821 0.000226757 488.821 59514.4 75359.3 
122 0.0504 0.0504 0 0.0495914 0.0495914 -0.00132965 495.914 54956.1 72859.1 
162 0.045 0.045 0 0.0424623 0.0424623 -0.00185852 424.623 51205.5 77852.6 
202 0.0372 0.0372 0 0.036936 0.036936 -0.000380544 369.36 44458.7 67553.1 
242 0.0412 0.0412 0 0.0411966 0.0411966 -0.000481244 411.966 60457.7 79745 
282 0.0408 0.0408 0 0.0423386 0.0423386 -0.000658497 423.386 67179.8 89604.3 
322 0.0014 0.0014 0 0.00129514 0.00129514 -0.00022424 143.309 19307.3 28806 
362 0.0038 0.0038 0 0.000866637 0.000866637 -0.000409029 39.2733 4310.31 6966.33 
402 0.0036 0.0036 0 3.9504e-05 3.9504e-05 -0.000360711 37.4946 4102.14 7127.88 
442 0.004 0.004 0 0.00050461 0.00050461 -0.000520659 36.888 7067.54 8318.14 
482 0.0066 0.0066 0 -7.37843e-06 -7.37843e-06 0.00075783 68.6214 12565.3 16760.8 
522 0.005 0.005 0 7.72853e-05 7.72853e-05 -0.000960699 43.0244 4093.16 8342.44 
562 0.0028 0.0028 0 0.000663043 0.000663043 0.000311131 31.8277 10123.8 13100.6 
602 0.0064 0.0064 0 0.00134383 0.00134383 -0.000289267 57.8037 2088.46 2610.08 
642 0.0004 0.0004 0 -0.000298003 -0.000298003 -0.000221678 36.4821 -12369.5 -13960.9 
682 0.001 0.001 0 -0.0010234 -0.0010234 0.000304793 10.234 2379.32 1195.84 
722 0.0016 0.0016 0 -0.0018303 -0.0018303 0.000154533 18.303 3365.18 4833.28 
762 0.0008 0.0008 0 -0.000736176 -0.000736176 -0.000373668 7.36176 -389.582 -551.302 
802 0.0014 0.0014 0 -0.00155422 -0.00155422 0.000133748 15.5422 748.961 934.573 
842 0.0008 0.0008 0 -0.000681369 -0.000681369 -0.000119086 6.81369 758.613 1013.33 
882 0.0002 0.0002 0 -0.000281444 -0.000281444 0.000166373 2.81444 1901.29 1969.79 
922 0.0006 0.0006 0 -0.000723654 -0.000723654 0.000257257 7.23654 1618.41 2409.85 
962 0.0004 0.0004 0 -0.000275724 -0.000275724 -8.03982e-05 34.4279 -252.781 -1608.29 
1002 0.0054 0.0054 0 0.00110129 0.00110129 0.00014434 43.9578 1600.93 5827.13 
1042 0.0042 0.0042 0 0.000816179 0.000816179 0.000145118 37.6875 1479.4 1798.28 
1082 0.0044 0.0044 0 0.000783434 0.000783434 -0.000803123 42.4936 3469.19 6781.39 
1122 0.0044 0.0044 0 0.00113565 0.00113565 -0.000368836 41.6449 1395.88 3380.39 
1162 0.0054 0.0054 0 0.00144627 0.00144627 -0.000327679 48.2071 1676.57 2027.39 
1202 0.0042 0.0042 0 0.00139928 0.00139928 -0.00063089 38.602 4301.29 4445.03 
1242 0.004 0.004 0 0.00225526 0.00225526 -3.52471e-06 44.5359 9722.64 14303 
3 0.0004 0.0004 0 0.000346352 0.000346352 -6.93297e-05 35.3532 11826 8102.28 
43 0.044 0.044 0 0.0443696 0.0443696 0.000403263 443.696 62177 80730.8 
83 0.05 0.05 0 0.0491452 0.0491452 0.00048843 491.452 51750.9 81729.8 
123 0.0456 0.0456 0 0.0464222 0.0464222 0.000740874 464.222 42119 57482.6 
163 0.0434 0.0434 0 0.0396947 0.0396947 0.000388006 396.947 46421.2 53540.2 
203 0.0408 0.0408 0 0.0404139 0.0404139 0.000919564 404.139 38427.8 51344.3 
243 0.0388 0.0388 0 0.0371418 0.0371418 -0.00104754 371.418 47489.4 68208.3 
283 0.0426 0.0426 0 0.0421274 0.0421274 -0.0026569 421.274 53356.1 77783.8 
323 0.0024 0.0024 0 0.00236337 0.00236337 0.000568066 232.935 51578.3 90041.2 
363 0.0052 0.0052 0 0.00181357 0.00181357 8.88648e-06 47.9635 10408.9 12702.2 
403 0.0052 0.0052 0 4.95408e-05 4.95408e-05 0.000416528 50.4473 11090.1 14356.9 
443 0.0046 0.0046 0 0.000885709 0.000885709 0.00026196 47.7625 4528.74 5063.46 
483 0.0064 0.0064 0 0.00223974 0.00223974 0.000418952 69.7209 8472.65 11135 
523 0.0054 0.0054 0 0.000137173 0.000137173 0.000193602 50.3372 3992.75 6260.56 
563 0.0066 0.0066 0 0.000632269 0.000632269 1.2694e-05 65.6231 10340.4 11640.7 
603 0.0028 0.0028 0 0.000783879 0.000783879 5.18448e-05 25.4007 818.895 342.229 
643 0 0 0 0 0 0 0 0 0 
683 0 0 0 0 0 0 0 0 0 
723 0.0006 0.0006 0 -0.000441989 -0.000441989 2.81216e-05 4.41989 446.962 397.402 
763 0.0008 0.0008 0 -0.000449563 -0.000449563 1.99761e-05 4.49563 601.732 1215.52 
803 0.0008 0.0008 0 -0.00060939 -0.00060939 0.000178383 6.0939 -287.012 -30.8563 
843 0.0008 0.0008 0 -0.000812629 -0.000812629 -5.89415e-05 8.12629 736.305 1189.01 
883 0.0014 0.0014 0 -0.00133678 -0.00133678 0.000113588 13.3678 629.318 68.3433 
923 0.001 0.001 0 -0.000905688 -0.000905688 0.000148319 9.05688 -71.8531 177.481 
963 0.0004 0.0004 0 -0.000227262 -0.000227262 -1.68481e-05 36.7122 800.829 -1427.74 
1003 0.0036 0.0036 0 0.000774504 0.000774504 0.000119414 38.0779 9562.5 11835 
1043 0.005 0.005 0 0.000870523 0.000870523 0.00080347 43.4058 3128.21 4518.24 
1083 0.0054 0.0054 0 0.00181156 0.00181156 0.000614478 56.5489 6889.81 11257.3 
1123 0.0034 0.0034 0 0.00107886 0.00107886 0.000459314 34.6417 5800.33 9994.2 
1163 0.0058 0.0058 0 0.0017796 0.0017796 -0.000919994 57.2288 12213.4 19395.2 
1203 0.0056 0.0056 0 0.00158775 0.00158775 0.000449075 47.4066 13947.1 21590.3 
1243 0.0028 0.0028 0 0.000855618 0.000855618 5.10157e-05 24.7456 4383.75 3205.16 
4 0.0012 0.0012 0 0.000709131 0.000709131 0.000289868 89.0861 28902.6 23565.1 
44 0.0398 0.0398 0 0.04056 0.04056 -0.000626618 405.6 53522.4 67642 
84 0.044 0.044 0 0.0452262 0.0452262 -0.0014439 452.262 65358.2 74096.1 
124 0.0398 0.0398 0 0.0397788 0.0397788 0.00104768 397.788 45502.7 64817.6 
164 0.0438 0.0438 0 0.041854 0.041854 -0.000124834 418.54 48800.2 59563 
204 0.0424 0.0424 0 0.0407994 0.0407994 0.00109913 407.994 50365.5 68755.9 
244 0.0468 0.0468 0 0.0470586 0.0470586 0.000330386 470.586 66588.4 81581 
284 0.039 0.039 0 0.0385459 0.0385459 0.00138024 385.459 42817.5 56198.8 
324 0.0014 0.0014 0 0.00112828 0.00112828 0.000143084 128.78 17352 13787.8 
364 0.0046 0.0046 0 0.0015266 0.0015266 -0.000417145 46.6643 7601.95 10423.4 
404 0.0046 0.0046 0 0.000131821 0.000131821 -8.13199e-05 41.2283 2387.29 6321.73 
444 0.005 0.005 0 0.00090412 0.00090412 -0.000110261 47.5483 3018 3489.11 
484 0.0052 0.0052 0 0.00107577 0.00107577 0.00117451 50.1266 2498.66 3453.12 
524 0.0038 0.0038 0 0.0010145 0.0010145 0.000311655 33.0905 3758.87 5673.22 
564 0.0048 0.0048 0 0.000755333 0.000755333 -0.000595 52.705 6861.66 7668.49 
604 0.0042 0.0042 0 0.000139537 0.000139537 -0.000248479 40.1896 3115.68 2471.99 
644 0 0 0 0 0 0 0 0 0 
684 0.0006 0.0006 0 -0.000525133 -0.000525133 5.54468e-05 5.25133 789.618 1160.85 
724 0.0014 0.0014 0 -0.00135766 -0.00135766 8.48699e-05 13.5766 1412.7 2251.91 
764 0.0014 0.0014 0 -0.00110928 -0.00110928 0.000333963 11.0928 1153.8 2189.3 
804 0.0016 0.0016 0 -0.00148318 -0.00148318 6.45233e-05 14.8318 1847.02 221.221 
844 0.0018 0.0018 0 -0.00215281 -0.00215281 0.000342563 21.5281 3073.84 2222.65 
884 0.0006 0.0006 0 -0.000565101 -0.000565101 5.17418e-05 5.65101 886.152 743.214 
924 0.0004 0.0004 0 -0.00028452 -0.00028452 0.000232844 2.8452 -86.2603 -752.267 
964 0 0 0 0 0 0 0 0 0 
1004 0.0048 0.0048 0 0.00082918 0.00082918 0.000310127 41.5622 7779.7 11441.3 
1044 0.0056 0.0056 0 0.000676848 0.000676848 0.000596197 44.0206 4533.99 6403.73 
1084 0.0068 0.0068 0 0.00163578 0.00163578 0.00113055 67.6031 7920.74 9805.38 
1124 0.0048 0.0048 0 0.00119242 0.00119242 -3.12473e-05 46.9417 7986.51 8669.27 
1164 0.0076 0.0076 0 0.000789443 0.000789443 0.000521544 70.8783 7161.75 11701.9 
1204 0.0034 0.0034 0 -0.000143456 -0.000143456 -0.000675754 33.0685 2420.2 4186.13 
1244 0.0028 0.0028 0 0.000665197 0.000665197 0.00030417 30.1035 5436.54 8279.25 
5 0.0018 0.0018 0 0.00124833 0.00124833 -0.000280692 167.078 5804.14 24086.4 
45 0.042 0.042 0 0.0431385 0.0431385 0.000551221 431.385 77828.1 104796 
85 0.0472 0.0472 0 0.046749 0.046749 2.19856e-05 467.49 64675.9 80251.9 
125 0.0478 0.0478 0 0.0478225 0.0478225 0.00155842 478.225 58532.7 83430.1 
165 0.054 0.054 0 0.054127 0.054127 0.00131758 541.27 65390.2 84833.2 
205 0.047 0.047 0 0.0476504 0.0476504 0.00135947 476.504 61368.7 73021.3 
245 0.0422 0.0422 0 0.0432821 0.0432821 -0.000854252 432.821 62026.1 77657.2 
285 0.039 0.039 0 0.0386499 0.0386499 -3.91732e-05 386.499 53427.3 78294.3 
325 0.0008 0.0008 0 0.000848034 0.000848034 -0.00025445 75.6395 25478.5 23254.1 
365 0.0056 0.0056 0 0.00156695 0.00156695 -0.000128642 58.1702 5914.28 9463.05 
405 0.0044 0.0044 0 0.001164 0.001164 0.000255398 47.6698 7011.36 6655.47 
445 0.0048 0.0048 0 0.000846919 0.000846919 -0.000440988 50.8428 4357.91 7539.35 
485 0.0058 0.0058 0 0.00175722 0.00175722 -0.000219544 65.0331 5127.09 9851.38 
525 0.004 0.004 0 0.000847412 0.000847412 -0.000246957 38.6399 5707.43 6040.39 
565 0.0054 0.0054 0 0.00147158 0.00147158 -0.000460594 50.3028 5405.26 7647.15 
605 0.0024 0.0024 0 0.000874042 0.000874042 0.000165494 25.618 2048.47 4756.36 
645 0.0002 0.0002 0 -2.4107e-05 -2.4107e-05 -5.06604e-07 16.8414 3265.62 4453.18 
685 0.0012 0.0012 0 -0.00108041 -0.00108041 0.000113944 10.8041 1401.03 2224.45 
725 0.0008 0.0008 0 -0.00104261 -0.00104261 -0.000304807 10.4261 -174.342 18.4098 
765 0.001 0.001 0 -0.000772702 -0.000772702 0.000320897 7.72702 -264.928 -883.716 
805 0.0016 0.0016 0 -0.0014888 -0.0014888 0.000496985 14.888 1934.26 2641.3 
845 0.0014 0.0014 0 -0.00111918 -0.00111918 0.000247477 11.1918 42.7698 636.127 
885 0.0012 0.0012 0 -0.00113545 -0.00113545 -3.35396e-05 11.3545 3072.47 3694.32 
925 0.0004 0.0004 0 -0.000375457 -0.000375457 0.000114325 3.75457 446.517 -207.655 
965 0 0 0 0 0 0 0 0 0 
1005 0.0032 0.0032 0 0.000397024 0.000397024 0.000268975 31.3704 1125.8 1195.19 
1045 0.0036 0.0036 0 0.00107597 0.00107597 -0.000274563 33.7864 1128.61 2340.55 
1085 0.0038 0.0038 0 0.000737905 0.000737905 -0.000632787 36.2716 5045.47 8443.14 
1125 0.0044 0.0044 0 0.00136375 0.00136375 0.000387441 40.8922 7378.64 10504.2 
1165 0.0046 0.0046 0 0.000746727 0.000746727 -3.22087e-05 44.0843 4494.54 4456.39 
1205 0.004 0.004 0 0.000843636 0.000843636 2.30575e-05 44.8047 3179.28 4285.4 
1245 0.0038 0.0038 0 0.00139117 0.00139117 -0.000455766 41.205 9054.88 12107 
6 0.002 0.002 0 0.00162765 0.00162765 0.00013939 215.331 56739.8 62261.4 
46 0.0342 0.0342 0 0.0320737 0.0320737 6.34385e-05 320.737 38300.7 56284.6 
86 0.0358 0.0358 0 0.0346656 0.0346656 -0.000222128 346.656 42844.7 56075.4 
126 0.0396 0.0396 0 0.0373503 0.0373503 0.0010561 373.503 38564.6 55914.5 
166 0.0522 0.0522 0 0.0519042 0.0519042 0.000335836 519.042 56693.2 75325 
206 0.0404 0.0404 0 0.041663 0.041663 0.00101609 416.63 50714.5 70501.3 
246 0.035 0.035 0 0.0341685 0.0341685 0.00103528 341.685 54531.8 74810.1 
286 0.0434 0.0434 0 0.0430288 0.0430288 0.00311629 430.288 50764.5 69969.9 
326 0.0006 0.0006 0 0.000438427 0.000438427 -5.1673e-05 25.7987 11155.4 14853.3 
366 0.0062 0.0062 0 0.00296534 0.00296534 0.000197624 58.1575 12432.7 16325.2 
406 0.005 0.005 0 0.00160011 0.00160011 0.000731573 50.2679 8260.64 12194.5 
446 0.005 0.005 0 0.000419165 0.000419165 0.000681019 47.7443 7455.61 14678.8 
486 0.0042 0.0042 0 0.00123916 0.00123916 0.000249024 40.8887 2211.87 2861.05 
526 0.0038 0.0038 0 0.000481228 0.000481228 0.000417729 33.3818 2778.51 4048.11 
566 0.0062 0.0062 0 0.00257588 0.00257588 7.61317e-05 68.5555 5054.3 5029.91 
606 0.003 0.003 0 0.000594294 0.000594294 -0.000341116 30.6722 1539.55 4953.99 
646 0 0 0 0 0 0 0 0 0 
686 0.0012 0.0012 0 -0.00105714 -0.00105714 -0.000277912 10.5714 373.451 1548.98 
726 0.0016 0.0016 0 -0.00152544 -0.00152544 0.000307462 15.2544 1504.35 944.584 
766 0.002 0.002 0 -0.00191957 -0.00191957 -0.000300582 19.1957 4147.85 4436.37 
806 0.0008 0.0008 0 -0.000654877 -0.000654877 0.000361798 6.54877 960.786 401.477 
846 0.0008 0.0008 0 -0.000753196 -0.000753196 7.25298e-06 7.53196 318.065 1416.42 
886 0.0012 0.0012 0 -0.00109431 -0.00109431 -0.000218316 10.9431 -240.161 -663.181 
926 0.0008 0.0008 0 -0.000743307 -0.000743307 -0.00036939 7.43307 942.717 978.422 
966 0 0 0 0 0 0 0 0 0 
1006 0.0046 0.0046 0 0.00132689 0.00132689 -0.000617719 44.295 3379.43 3434.65 
1046 0.0056 0.0056 0 0.000604274 0.000604274 0.000326996 57.3275 2425.09 7598.68 
1086 0.0036 0.0036 0 0.000530634 0.000530634 -0.000522938 34.0219 1507.32 3928.07 
1126 0.0052 0.0052 0 0.00154345 0.00154345 -0.00103198 49.9644 2514.47 3887.95 
1166 0.0058 0.0058 0 0.0014479 0.0014479 -0.000661981 57.4471 7016.99 9778.9 
1206 0.0048 0.0048 0 0.00129554 0.00129554 0.000392991 52.5444 3443.66 3977.54 
1246 0.0054 0.0054 0 0.00303604 0.00303604 -0.000535818 50.0642 12687.6 18151.6 
7 0.0012 0.0012 0 0.000686875 0.000686875 0.000344488 117.079 21568.6 31681.4 
47 0.0368 0.0368 0 0.0373092 0.0373092 6.35658e-05 373.092 53773.2 78976.5 
87 0.042 0.042 0 0.0398318 0.0398318 -0.000269658 398.318 47252 63520.3 
127 0.0536 0.0536 0 0.0520271 0.0520271 -0.00196511 520.271 54162.4 70887.3 
167 0.054 0.054 0 0.0518508 0.0518508 0.00149053 518.508 57442.2 69623.1 
207 0.0374 0.0374 0 0.0369668 0.0369668 -0.00241138 369.668 47291.2 72189 
247 0.0362 0.0362 0 0.0378746 0.0378746 0.000965741 378.746 53536.2 75494.8 
287 0.037 0.037 0 0.0370509 0.0370509 0.00103567 370.509 57812.8 72230.8 
327 0.0004 0.0004 0 0.000280677 0.000280677 0.000367035 37.3037 -4266.8 -420.656 
367 0.005 0.005 0 0.00135838 0.00135838 -0.000611844 46.2414 5465.83 8526.54 
407 0.0064 0.0064 0 0.00132713 0.00132713 0.00101601 60.2497 7145.8 6782.47 
447 0.0034 0.0034 0 0.000241377 0.000241377 0.000345279 34.5872 4648.15 6410.74 
487 0.005 0.005 0 0.000202161 0.000202161 0.000232333 45.9889 3715.47 5678.5 
527 0.0042 0.0042 0 0.000671938 0.000671938 0.000175709 40.3682 4211.76 4416.02 
567 0.0048 0.0048 0 0.000655287 0.000655287 4.68164e-05 43.5273 3009.62 3227.66 
607 0.0046 0.0046 0 0.001046 0.001046 -0.00058632 42.3152 7158.89 6399.89 
647 0 0 0 0 0 0 0 0 0 
687 0.0004 0.0004 0 -0.00037642 -0.00037642 0.000107951 3.7642 -217.315 -639.332 
727 0.0004 0.0004 0 -0.000202656 -0.000202656 5.40263e-05 2.02656 56.5262 262.088 
767 0.001 0.001 0 -0.00105538 -0.00105538 -0.000526717 10.5538 1165.3 730.861 
807 0.0014 0.0014 0 -0.00139691 -0.00139691 0.000310008 13.9691 -364.577 -84.1352 
847 0.0004 0.0004 0 -0.000318935 -0.000318935 -4.41536e-05 3.18935 643.129 1824.81 
887 0.0012 0.0012 0 -0.000977053 -0.000977053 -0.000245871 9.77053 2420.51 1935.18 
927 0.0006 0.0006 0 -0.000592345 -0.000592345 -0.000227089 5.92345 830.933 1035.45 
967 0.0002 0.0002 0 -7.38626e-05 -7.38626e-05 -5.00608e-06 19.5564 3346.93 2608.71 
1007 0.0032 0.0032 0 0.000486358 0.000486358 0.000194032 28.4189 2164.45 3770.24 
1047 0.0042 0.0042 0 0.000788312 0.000788312 -1.22274e-05 37.761 2572.74 4208.75 
1087 0.0042 0.0042 0 0.000558531 0.000558531 0.00019832 33.7934 4354.86 7654.32 
1127 0.006 0.006 0 0.000491892 0.000491892 -0.00148733 50.6679 5811.81 6309.78 
1167 0.004 0.004 0 0.000488135 0.000488135 0.000369843 37.8076 5392.9 8590.59 
1207 0.0036 0.0036 0 0.000771364 0.000771364 0.000747373 38.8814 5692.87 8358.2 
1247 0.0048 0.0048 0 0.00192872 0.00192872 -0.000361277 47.0337 15558.4 15828.8 
8 0.0014 0.0014 0 0.00135078 0.00135078 -0.000148081 134.057 29936.4 52380.4 
48 0.0474 0.0474 0 0.0485107 0.0485107 0.000417757 485.107 64963.6 87279 
88 0.042 0.042 0 0.0427775 0.0427775 0.00109335 427.775 43841.8 60053.1 
128 0.0476 0.0476 0 0.0480712 0.0480712 -0.00112911 480.712 44240.4 55893.7 
168 0.0518 0.0518 0 0.0478796 0.0478796 -0.000128791 478.796 47492.1 62758.6 
208 0.0388 0.0388 0 0.0410877 0.0410877 0.000932518 410.877 42434.3 57881.8 
248 0.0414 0.0414 0 0.0423371 0.0423371 0.00211466 423.371 50846.3 73117.5 
288 0.031 0.031 0 0.0301394 0.0301394 0.000801773 301.394 31794.3 62425.7 
328 0.0004 0.0004 0 0.000469906 0.000469906 0.000222472 50.5808 15711.5 20999.4 
368 0.0034 0.0034 0 0.000951038 0.000951038 -0.000155273 32.1143 5916.27 9811.47 
408 0.0034 0.0034 0 0.00134223 0.00134223 -0.000616273 31.3382 6206.32 8421.84 
448 0.006 0.006 0 0.000944583 0.000944583 -0.000269656 54.147 6721.81 11937.6 
488 0.0056 0.0056 0 0.000628982 0.000628982 -2.54631e-05 45.8556 1076.29 3010.73 
528 0.0062 0.0062 0 0.000807814 0.000807814 -0.000280354 62.6321 6755.36 9814.52 
568 0.0046 0.0046 0 0.000609037 0.000609037 -0.000311115 40.6959 4111.52 7752.36 
608 0.0038 0.0038 0 0.0011989 0.0011989 0.000327706 35.8373 5583.21 7075.84 
648 0 0 0 0 0 0 0 0 0 
688 0.0006 0.0006 0 -0.000897109 -0.000897109 -0.00012721 8.97109 2168.43 2463.26 
728 0.0012 0.0012 0 -0.00103144 -0.00103144 -0.000215312 10.3144 286.519 1328.57 
768 0.0012 0.0012 0 -0.00127951 -0.00127951 3.24785e-05 12.7951 910.47 1620.2 
808 0.0008 0.0008 0 -0.000779637 -0.000779637 -5.20826e-06 7.79637 149.425 702.71 
848 0.0006 0.0006 0 -0.000632741 -0.000632741 -2.14299e-05 6.32741 -309.313 -366.5 
888 0.0006 0.0006 0 -0.000810317 -0.000810317 8.97956e-05 8.10317 -253.812 -111.898 
928 0.0006 0.0006 0 -0.000539529 -0.000539529 -0.000260536 5.39529 1733.21 1100.18 
968 0.0004 0.0004 0 2.6556e-05 2.6556e-05 0.000250383 42.9563 4729.41 5369.13 
1008 0.0056 0.0056 0 0.00099157 0.00099157 -0.00122655 51.5282 4869.94 4877.3 
1048 0.005 0.005 0 0.000562792 0.000562792 -4.00123e-05 49.4944 2822.61 3276.5 
1088 0.0064 0.0064 0 0.00126225 0.00126225 0.000511648 64.0855 7742.2 12990.7 
1128 0.0054 0.0054 0 0.000128532 0.000128532 5.38373e-05 56.384 9147.03 13012.8 
1168 0.005 0.005 0 0.00072947 0.00072947 0.000266351 43.1936 1150.04 7341.05 
1208 0.0036 0.0036 0 0.000970376 0.000970376 -7.84848e-05 33.3294 5780.44 8230.7 
1248 0.0036 0.0036 0 0.0009373 0.0009373 -0.000179765 35.2582 3779.1 8311.53 
9 0.0018 0.0018 0 0.0013537 0.0013537 0.000144212 174.503 41100.5 48349.3 
49 0.0384 0.0384 0 0.0399774 0.0399774 -0.000471338 399.774 51567.4 73148.8 
89 0.0498 0.0498 0 0.0501977 0.0501977 -0.00150005 501.977 54528.6 75371.1 
129 0.0408 0.0408 0 0.0391758 0.0391758 0.00177054 391.758 41831.5 67021.7 
169 0.0548 0.0548 0 0.052807 0.052807 0.00128763 528.07 45154.7 59636.3 
209 0.0472 0.0472 0 0.0456201 0.0456201 -0.0018188 456.201 39959.4 57923.9 
249 0.043 0.043 0 0.0433523 0.0433523 -0.000935042 433.523 45395.8 66189.8 
289 0.0384 0.0384 0 0.0389879 0.0389879 -0.00105133 389.879 59945.9 82599.3 
329 0.0006 0.0006 0 0.000396687 0.000396687 -7.27441e-05 50.7064 18702.8 26694.3 
369 0.0046 0.0046 0 0.00158747 0.00158747 -0.000371345 49.0223 10840.4 14811.2 
409 0.004 0.004 0 0.00192125 0.00192125 -0.000241405 39.2893 9409.86 11012.3 
449 0.0072 0.0072 0 0.000962805 0.000962805 -0.00102943 69.1757 11903.9 13977.9 
489 0.0038 0.0038 0 0.000605355 0.000605355 -0.000153918 31.299 3137.63 2506.34 
529 0.0048 0.0048 0 0.000641585 0.000641585 0.000178658 39.3818 3754.38 5588.88 
569 0.0036 0.0036 0 0.000513653 0.000513653 0.000459687 34.2528 -337.209 1079.06 
609 0.005 0.005 0 0.000656543 0.000656543 -0.000100387 45.6881 4373.01 8795.36 
649 0 0 0 0 0 0 0 0 0 
689 0.0002 0.0002 0 -8.553e-05 -8.553e-05 5.81051e-05 0.8553 124.612 129.892 
729 0.001 0.001 0 -0.000911415 -0.000911415 -0.000133412 9.11415 460.741 1153.56 
769 0.0012 0.0012 0 -0.00114111 -0.00114111 0.000205914 11.4111 -191.926 583.251 
809 0.0014 0.0014 0 -0.00124601 -0.00124601 -0.00035562 12.4601 169.091 294.298 
849 0.001 0.001 0 -0.000949478 -0.000949478 -5.52398e-05 9.49478 -595.099 -713.396 
889 0.0006 0.0006 0 -0.000649491 -0.000649491 -0.000195444 6.49491 1058.96 1641.4 
929 0.0006 0.0006 0 -0.000488482 -0.000488482 8.9969e-05 4.88482 139.8 170.454 
969 0.0006 0.0006 0 -7.8015e-05 -7.8015e-05 0.000178919 42.9784 -6551.8 -3215.34 
1009 0.003 0.003 0 0.000343529 0.000343529 -0.000133439 33.157 4926.18 5541.54 
1049 0.0056 0.0056 0 0.000942956 0.000942956 -0.000133422 48.4791 7512.17 9905.46 
1089 0.0052 0.0052 0 0.000391164 0.000391164 -0.000485678 46.7716 2199.98 4239.97 
1129 0.0054 0.0054 0 0.000374406 0.000374406 0.000530517 47.5327 4912.08 6378.53 
1169 0.004 0.004 0 0.00134028 0.00134028 0.000845203 35.9081 1309.13 3605.96 
1209 0.006 0.006 0 0.00136346 0.00136346 -0.000899637 56.3018 9273.18 14420.7 
1249 0.0022 0.0022 0 0.000650434 0.000650434 -0.000161844 16.9912 652.597 3075.71 
10 0.0026 0.0026 0 0.00270579 0.00270579 3.21836e-05 269.71 68675.1 71222.4 
50 0.0524 0.0524 0 0.0538421 0.0538421 -0.00123589 538.421 78080.9 111229 
90 0.04 0.04 0 0.0380932 0.0380932 0.000254487 380.932 46372 62620.3 
130 0.049 0.049 0 0.0477502 0.0477502 0.000907586 477.502 33548.6 59060.7 
170 0.0368 0.0368 0 0.0388636 0.0388636 0.000280362 388.636 48355.7 66761.7 
210 0.0488 0.0488 0 0.0477943 0.0477943 0.000295625 477.943 70145 92564.5 
250 0.0352 0.0352 0 0.0355438 0.0355438 0.000950697 355.438 44663.4 59070.1 
290 0.0382 0.0382 0 0.0384038 0.0384038 0.00076151 384.038 57302.4 76435.9 
330 0.001 0.001 0 0.000827814 0.000827814 -0.000149534 98.9781 18400.4 14740.5 
370 0.0074 0.0074 0 0.00237863 0.00237863 0.00118121 64.8955 10333.3 14293.5 
410 0.0058 0.0058 0 0.00144973 0.00144973 -7.78677e-05 55.458 13809.8 12591.2 
450 0.0032 0.0032 0 0.000725117 0.000725117 0.000299435 34.1787 605.165 2707.98 
490 0.0034 0.0034 0 0.00120604 0.00120604 -0.000343441 34.2186 5094.36 4259.22 
530 0.0062 0.0062 0 0.00111167 0.00111167 0.000184507 58.2487 9573.03 11809.5 
570 0.004 0.004 0 0.00165839 0.00165839 -0.00026287 35.1909 4703.11 5347.92 
610 0.0044 0.0044 0 0.000233121 0.000233121 9.33063e-05 43.5584 8453.48 6028.63 
650 0 0 0 0 0 0 0 0 0 
690 0.0008 0.0008 0 -0.000797199 -0.000797199 -0.000193021 7.97199 -73.0832 1273.48 
730 0.001 0.001 0 -0.00102975 -0.00102975 0.000303825 10.2975 -2035.07 -1611.04 
770 0.0012 0.0012 0 -0.00118953 -0.00118953 0.000119942 11.8953 1555.83 2515.5 
810 0.0006 0.0006 0 -0.000491828 -0.000491828 -0.000105795 4.91828 -3.93544 -572.856 
850 0.0018 0.0018 0 -0.00165061 -0.00165061 0.000122855 16.5061 3272.13 4412 
890 0.0012 0.0012 0 -0.000884113 -0.000884113 1.50535e-05 8.84113 1768.1 1173.95 
930 0.0006 0.0006 0 -0.000679581 -0.000679581 0.0001419 6.79581 834.5 505.288 
970 0.0002 0.0002 0 0.000176608 0.000176608 -8.57174e-06 9.8121 2107.77 2756.21 
1010 0.0038 0.0038 0 0.00111456 0.00111456 -0.000255103 37.2882 4596.7 5884.11 
1050 0.0056 0.0056 0 0.00100162 0.00100162 -0.000775264 46.2746 4979.38 11185.7 
1090 0.0062 0.0062 0 0.00118843 0.00118843 4.24393e-05 57.3822 6732.7 9791.77 
1130 0.0082 0.0082 0 0.0019244 0.0019244 -0.000710383 72.1416 9256.97 14536.9 
1170 0.0022 0.0022 0 7.26957e-05 7.26957e-05 -0.000411258 17.6281 -264.325 1134.8 
1210 0.004 0.004 0 0.00178339 0.00178339 3.95477e-05 37.7284 9278.8 9177.58 
1250 0.0028 0.0028 0 0.00122652 0.00122652 -0.000494083 25.21 4851.01 5328.14 
11 0.0018 0.0018 0 0.00187216 0.00187216 0.000516283 157.754 39058.8 72272.3 
51 0.0442 0.0442 0 0.0441736 0.0441736 -4.13172e-05 441.736 51308.6 74224.4 
91 0.0448 0.0448 0 0.0442883 0.0442883 0.000240955 442.883 58322.6 72124 
131 0.0478 0.0478 0 0.0453259 0.0453259 -0.000495373 453.259 45870.7 61609.6 
171 0.0468 0.0468 0 0.0465521 0.0465521 -0.00025969 465.521 38810 54036.4 
211 0.048 0.048 0 0.0498661 0.0498661 0.00145209 498.661 53005 71050.4 
251 0.0366 0.0366 0 0.0363639 0.0363639 0.00145228 363.639 52892.8 78152.7 
291 0.04 0.04 0 0.0410239 0.0410239 -0.00107137 410.239 60242.6 78484.9 
331 0.0008 0.0008 0 0.000626914 0.000626914 0.00024689 80.7217 -5680.31 4135.74 
371 0.0046 0.0046 0 0.00129835 0.00129835 -0.000733282 43.7598 6245.33 9008.04 
411 0.0044 0.0044 0 0.00137293 0.00137293 -1.19158e-05 41.6651 4377.73 7791.01 
451 0.0046 0.0046 0 0.0018232 0.0018232 0.000108366 56.7018 13985.7 15803.9 
491 0.0042 0.0042 0 0.000995506 0.000995506 0.000680921 38.7406 8212.25 8498.55 
531 0.0046 0.0046 0 0.000165982 0.000165982 -1.84559e-05 47.5581 1537.25 -115.153 
571 0.0046 0.0046 0 0.000746047 0.000746047 -6.03875e-05 41.8411 3250.79 4925.78 
611 0.0046 0.0046 0 0.0010968 0.0010968 -0.000304501 41.7908 6844.46 8232.56 
651 0.0002 0.0002 0 -0.000186713 -0.000186713 -7.03449e-05 19.2749 -3247.51 3477.02 
691 0.001 0.001 0 -0.000636026 -0.000636026 -5.75171e-05 6.36026 -320.897 -148.803 
731 0.001 0.001 0 -0.000675223 -0.000675223 0.000166441 6.75223 57.6694 544.094 
771 0.0014 0.0014 0 -0.00144914 -0.00144914 -0.00035941 14.4914 817.237 978.184 
811 0.0022 0.0022 0 -0.00244901 -0.00244901 0.000213892 24.4901 871.248 1609.59 
851 0.0004 0.0004 0 -0.000468265 -0.000468265 0.000119296 4.68265 310.594 733.768 
891 0.001 0.001 0 -0.000980154 -0.000980154 0.000160737 9.80154 1495.9 1787.54 
931 0.0004 0.0004 0 -0.000429816 -0.000429816 -9.3776e-05 4.29816 429.333 53.6815 
971 0.0004 0.0004 0 3.56487e-05 3.56487e-05 0.000152875 15.5296 130.386 -1199.26 
1011 0.0036 0.0036 0 0.000345987 0.000345987 9.12056e-05 30.3398 2753.67 5953.18 
1051 0.0044 0.0044 0 0.00091848 0.00091848 -0.000107555 41.5248 3466 4584.43 
1091 0.0058 0.0058 0 0.00198741 0.00198741 0.000113769 43.2325 7117.42 7207.76 
1131 0.0054 0.0054 0 0.000616963 0.000616963 -0.000176887 51.0875 6561.43 10053.1 
1171 0.006 0.006 0 0.00140487 0.00140487 -0.000300621 60.9683 2929.58 4601.92 
1211 0.0036 0.0036 0 0.00132539 0.00132539 9.39782e-05 37.3304 6802.4 10308 
1251 0.0036 0.0036 0 0.000203177 0.000203177 0.000795139 38.2397 4942.09 7506.53 
12 0.003 0.003 0 0.00318688 0.00318688 -0.000582043 308.341 62599.3 77178.3 
52 0.0336 0.0336 0 0.0328 0.0328 0.00160793 328 43399.1 62061.3 
92 0.038 0.038 0 0.037634 0.037634 0.00185428 376.34 48518.6 66898.7 
132 0.0404 0.0404 0 0.0380909 0.0380909 -0.00264497 380.909 44355.7 59877.3 
172 0.0392 0.0392 0 0.0379207 0.0379207 8.88028e-05 379.207 36603.5 53770 
212 0.0474 0.0474 0 0.047896 0.047896 -0.000437434 478.96 47973.8 61908.7 
252 0.0436 0.0436 0 0.0443015 0.0443015 -0.00184669 443.015 51701.5 71551 
292 0.0392 0.0392 0 0.0405434 0.0405434 0.00113116 405.434 59000.2 78818.8 
332 0.0006 0.0006 0 0.000583906 0.000583906 -0.000199451 64.9743 34640.6 49716.1 
372 0.0054 0.0054 0 0.00209335 0.00209335 -0.00035849 44.5866 5161.35 7501.16 
412 0.0032 0.0032 0 0.00115161 0.00115161 0.0001803 31.5273 6403.12 10236.4 
452 0.0052 0.0052 0 0.000598683 0.000598683 0.000128024 48.0955 1391.34 1568 
492 0.005 0.005 0 0.00131243 0.00131243 -0.0010664 59.8034 8342.3 13023.5 
532 0.0048 0.0048 0 0.000870124 0.000870124 0.000259091 44.455 3859.06 7194.48 
572 0.0052 0.0052 0 0.000485877 0.000485877 0.000172189 46.1846 7264.05 8915.14 
612 0.0038 0.0038 0 0.000773363 0.000773363 0.000291956 32.3124 6111.23 7313.73 
652 0 0 0 0 0 0 0 0 0 
692 0.0008 0.0008 0 -0.000708323 -0.000708323 -4.15706e-05 7.08323 1075.01 1056.15 
732 0.0004 0.0004 0 -0.000513131 -0.000513131 -0.000119482 5.13131 1253.48 1303.28 
772 0.0012 0.0012 0 -0.000890913 -0.000890913 -0.000290887 8.90913 676.926 338.778 
812 0.0006 0.0006 0 -0.000488589 -0.000488589 -0.000149739 4.88589 127.511 134.759 
852 0.0014 0.0014 0 -0.00127566 -0.00127566 0.000536546 12.7566 144.056 -170.657 
892 0.0012 0.0012 0 -0.00130776 -0.00130776 -0.000217146 13.0776 720.447 410.308 
932 0 0 0 0 0 0 0 0 0 
972 0.0012 0.0012 0 0.000423102 0.000423102 0.000301897 19.1918 -108.679 602.945 
1012 0.0036 0.0036 0 0.00136089 0.00136089 -0.000437191 32.5657 1883.81 4988.9 
1052 0.0048 0.0048 0 0.000617316 0.000617316 0.000137025 43.1131 4842.44 5620.13 
1092 0.0044 0.0044 0 0.00103909 0.00103909 2.50367e-05 41.2569 5190.24 8832.28 
1132 0.008 0.008 0 -0.000279613 -0.000279613 -0.000531432 72.6935 8046.78 12759.4 
1172 0.0044 0.0044 0 0.000148174 0.000148174 0.000550674 41.6205 10154.1 10524.3 
1212 0.0038 0.0038 0 0.000898651 0.000898651 -0.000801925 45.831 11042.6 13585.1 
1252 0.0044 0.0044 0 0.00242708 0.00242708 0.000530732 50.0918 13134.6 15223.5 
13 0.0034 0.0034 0 0.0033739 0.0033739 -1.68669e-05 325.755 49733.4 47432.1 