ITEM: TIMESTEP
25000
ITEM: NUMBER OF SURFS
1272
ITEM: BOX BOUNDS oo rr pp
0 0.3
0 0.3
-0.5 0.5
ITEM: SURFS id f_4[1] f_4[2] f_4[3] f_4[4] f_4[5] f_4[6] f_4[7] f_4[8] f_4[9] 
1 0.0004 0.0004 0 -7.01641e-06 -7.01641e-06 -3.03415e-05 11.7226 4785.54 5200.03 
21 0.0134 0.0134 0 0.00422148 0.00422148 0.000507135 42.2148 11716.1 14962.8 
41 0.0162 0.0162 0 0.0047481 0.0047481 -0.000343346 47.481 8414.98 11567.5 
61 0.015 0.015 0 0.00402886 0.00402886 0.000346311 40.2886 7232.05 10492.9 
81 0.0182 0.0182 0 0.00503981 0.00503981 -0.000213508 50.3981 9958.12 13375.3 
101 0.0168 0.0168 0 0.00500671 0.00500671 3.48435e-05 50.0671 9128.73 13999.6 
121 0.0134 0.0134 0 0.00387356 0.00387356 0.000109641 38.7356 8421.88 11056 
141 0.0154 0.0154 0 0.00400982 0.00400982 3.97221e-05 40.0982 8735.31 11396.1 
161 0.0198 0.0198 0 0.00526706 0.00526706 0.00041166 52.6706 10416.3 12346.5 
181 0.0148 0.0148 0 0.00413194 0.00413194 -5.35368e-05 41.3194 8262 10214.5 
201 0.0212 0.0212 0 0.00555662 0.00555662 0.000190149 55.5662 9828.45 15145.9 
221 0.0144 0.0144 0 0.00346023 0.00346023 8.31729e-05 34.6023 5062.24 7980.06 
241 0.015 0.015 0 0.00446418 0.00446418 6.614e-05 44.6418 6067.16 8020.86 
261 0.018 0.018 0 0.00457412 0.00457412 -0.000408873 45.7412 7387.99 10893.4 
281 0.015 0.015 0 0.00405756 0.00405756 -9.85404e-05 40.5756 9593.48 12577.6 
301 0.0142 0.0142 0 0.00414477 0.00414477 -0.000108664 41.4477 10691.4 14017.4 
321 0.0016 0.0016 0 0.000462916 0.000462916 7.46009e-05 43.7532 12646.2 14725 
341 0.0022 0.0022 0 0.000297159 0.000297159 6.51561e-05 6.39324 2182.41 2836.65 
361 0.0022 0.0022 0 7.57477e-05 7.57477e-05 -7.79259e-05 5.4933 863.266 1902.78 
381 0.0012 0.0012 0 0.000135419 0.000135419 -5.06194e-05 2.69088 1581.19 2876.33 
401 0.002 0.002 0 0.000336433 0.000336433 5.78356e-05 5.25812 3169.2 3425.43 
421 0.0014 0.0014 0 0.000143376 0.000143376 -1.1788e-05 4.52004 2179.94 2622.55 
441 0.0006 0.0006 0 0.000128505 0.000128505 -7.59307e-05 1.18584 734.528 1091.53 
461 0.0024 0.0024 0 0.00017788 0.00017788 0.000124679 6.30522 379.516 814.927 
481 0.0022 0.0022 0 7.94395e-05 7.94395e-05 2.46997e-06 6.36811 757.363 1870.59 
501 0.0022 0.0022 0 0.000401428 0.000401428 -5.25792e-06 6.31648 2402.98 3756.9 
521 0.0026 0.0026 0 0.000199988 0.000199988 -3.31121e-05 7.13252 1638.73 2659.34 
541 0.0014 0.0014 0 0.000273842 0.000273842 -7.08186e-05 3.7183 781.618 1144.8 
561 0.003 0.003 0 0.00024485 0.00024485 -5.79665e-05 6.8494 1392.53 1956.93 
581 0.0016 0.0016 0 0.000210115 0.000210115 -2.82949e-05 4.06991 1403.99 1754.28 
601 0.002 0.002 0 0.000292199 0.000292199 -2.19851e-05 4.91711 1485.48 2214.91 
621 0.0008 0.0008 0 9.05369e-05 9.05369e-05 1.66246e-05 2.22095 254.598 266.285 
641 0 0 0 0 0 0 0 0 0 
661 0 0 0 0 0 0 0 0 0 
681 0 0 0 0 0 0 0 0 0 
701 0 0 0 0 0 0 0 0 0 
721 0 0 0 0 0 0 0 0 0 
741 0 0 0 0 0 0 0 0 0 
761 0 0 0 0 0 0 0 0 0 
781 0 0 0 0 0 0 0 0 0 
801 0.0002 0.0002 0 -4.16342e-05 -4.16342e-05 -3.45361e-05 0.416342 102.953 613.881 
821 0.0002 0.0002 0 -3.37339e-05 -3.37339e-05 1.07905e-05 0.337339 103.946 76.2043 
841 0 0 0 0 0 0 0 0 0 
861 0 0 0 0 0 0 0 0 0 
881 0 0 0 0 0 0 0 0 0 
901 0 0 0 0 0 0 0 0 0 
921 0 0 0 0 0 0 0 0 0 
941 0.0002 0.0002 0 -4.51818e-05 -4.51818e-05 2.44657e-06 0.451818 -179.769 -146.626 
961 0 0 0 0 0 0 0 0 0 
981 0.0018 0.0018 0 0.000251157 0.000251157 9.2154e-05 3.67505 893.801 1429.43 
1001 0.001 0.001 0 0.000211312 0.000211312 6.26724e-05 2.97834 1307.81 1857.54 
1021 0.0016 0.0016 0 0.000134235 0.000134235 8.96297e-05 4.64806 629.366 986.797 
1041 0.0012 0.0012 0 6.1792e-05 6.1792e-05 -9.20053e-05 3.15283 1081.14 1680.14 
1061 0.001 0.001 0 9.42433e-05 9.42433e-05 -6.82576e-05 2.77424 976.37 1614.97 
1081 0.0016 0.0016 0 0.000158853 0.000158853 4.77468e-05 3.63017 747.423 1183.15 
1101 0.0014 0.0014 0 1.74994e-05 1.74994e-05 -0.000164856 3.5893 850.574 600.964 
1121 0.0012 0.0012 0 9.7305e-05 9.7305e-05 7.25414e-05 2.2471 109.34 -50.7344 
1141 0.0016 0.0016 0 0.000151128 0.000151128 -1.328e-05 3.16235 707.313 1792.43 
1161 0.0006 0.0006 0 4.10107e-05 4.10107e-05 1.68409e-05 2.23121 435.769 1007.27 
1181 0.0008 0.0008 0 5.39743e-05 5.39743e-05 9.51935e-06 1.97291 65.403 156.103 
1201 0.0004 0.0004 0 6.55538e-06 6.55538e-06 5.48272e-05 1.34205 295.538 917.619 
1221 0.0012 0.0012 0 0.000189389 0.000189389 -3.22125e-05 3.17009 873.909 825.406 
1241 0.0014 0.0014 0 0.000153236 0.000153236 -0.000110045 3.48014 1869.23 2524.76 
1261 0.0016 0.0016 0 8.41829e-05 8.41829e-05 -0.000183177 4.40819 1627.2 2976.34 
2 0 0 0 0 0 0 0 0 0 
22 0.0132 0.0132 0 0.00394666 0.00394666 0.000440331 39.4666 10823.5 15893.5 
42 0.0152 0.0152 0 0.00449319 0.00449319 -0.000108005 44.9319 11786 15886.7 
62 0.0194 0.0194 0 0.00503446 0.00503446 -0.000267709 50.3446 10493.3 12410.1 
82 0.014 0.014 0 0.00406508 0.00406508 9.45921e-05 40.6508 7008.97 9429.62 
102 0.0156 0.0156 0 0.00407167 0.00407167 6.34754e-05 40.7167 10860.5 13431.8 
122 0.0174 0.0174 0 0.00465873 0.00465873 -0.000347936 46.5873 8602.79 12749.6 
142 0.0172 0.0172 0 0.00464206 0.00464206 -0.000100757 46.4206 7311.78 10767 
162 0.0164 0.0164 0 0.00424521 0.00424521 0.000384087 42.4521 9490.68 10897.8 
182 0.0168 0.0168 0 0.00461667 0.00461667 -0.000101421 46.1667 9114.74 11535.6 
202 0.015 0.015 0 0.00368863 0.00368863 -0.000144123 36.8863 5468.95 8455.36 
222 0.0164 0.0164 0 0.0041023 0.0041023 -0.000263188 41.023 8588.77 12545.9 
242 0.0166 0.0166 0 0.00438517 0.00438517 0.000298517 43.8517 9429.36 12497.7 
262 0.0168 0.0168 0 0.00436783 0.00436783 -6.02256e-05 43.6783 10154.9 12749.4 
282 0.0128 0.0128 0 0.00369221 0.00369221 0.000209764 36.9221 8031.82 9363.96 
302 0.0176 0.0176 0 0.00550223 0.00550223 0.000133037 55.0223 12731.7 17496.6 
322 0.0004 0.0004 0 0.000106269 0.000106269 -1.17533e-05 9.92053 433.597 872.551 
342 0.003 0.003 0 0.000209328 0.000209328 -6.65947e-05 8.16542 1089.99 2002.74 
362 0.0024 0.0024 0 0.000259812 0.000259812 -2.65637e-05 6.35823 2255.21 3328 
382 0.0028 0.0028 0 0.000375522 0.000375522 1.34018e-05 8.44818 4198.66 4449.43 
402 0.0016 0.0016 0 0.000169073 0.000169073 -2.01315e-05 3.93316 516.901 809.987 
422 0.0018 0.0018 0 0.000202822 0.000202822 7.48088e-05 4.07544 1227.86 1938.86 
442 0.001 0.001 0 0.000110285 0.000110285 6.01352e-05 2.51794 639.983 804 
462 0.0022 0.0022 0 0.000267487 0.000267487 -0.000170669 6.34634 2543.09 3100.12 
482 0.0016 0.0016 0 0.000122134 0.000122134 0.000144923 4.45274 1071.96 1579.35 
502 0.0018 0.0018 0 0.000216415 0.000216415 -0.00013636 6.86728 1277.47 1612.14 
522 0.0016 0.0016 0 0.000158531 0.000158531 -9.48186e-05 4.20496 1307.67 1938.66 
542 0.001 0.001 0 9.20758e-05 9.20758e-05 3.93172e-05 2.3191 229.035 560.266 
562 0.0008 0.0008 0 0.000156923 0.000156923 -7.20198e-05 2.428 975.103 1219.72 
582 0.0024 0.0024 0 0.000137475 0.000137475 9.43441e-06 6.24446 1707.74 2148.28 
602 0.0014 0.0014 0 0.000229095 0.000229095 3.3529e-06 4.26037 1467.99 2167.88 
622 0.0024 0.0024 0 0.000424792 0.000424792 -1.46084e-05 6.90131 3319.67 3671.95 
642 0 0 0 0 0 0 0 0 0 
662 0.0002 0.0002 0 -4.16687e-05 -4.16687e-05 3.85562e-05 0.416687 -142.672 -173.919 
682 0 0 0 0 0 0 0 0 0 
702 0 0 0 0 0 0 0 0 0 
722 0 0 0 0 0 0 0 0 0 
742 0 0 0 0 0 0 0 0 0 
762 0 0 0 0 0 0 0 0 0 
782 0.0002 0.0002 0 -2.56327e-05 -2.56327e-05 0 0.256327 1.80556e-14 1.80556e-14 
802 0 0 0 0 0 0 0 0 0 
822 0 0 0 0 0 0 0 0 0 
842 0.0002 0.0002 0 -5.24058e-05 -5.24058e-05 -1.16918e-05 0.524058 -147.3 -134.203 
862 0 0 0 0 0 0 0 0 0 
882 0 0 0 0 0 0 0 0 0 
902 0 0 0 0 0 0 0 0 0 
922 0.0002 0.0002 0 -3.5571e-05 -3.5571e-05 2.07177e-05 0.35571 -52.2861 -58.6981 
942 0 0 0 0 0 0 0 0 0 
962 0 0 0 0 0 0 0 0 0 
982 0.001 0.001 0 0.000144572 0.000144572 -4.90211e-05 3.4823 1300.04 1368.24 
1002 0.0016 0.0016 0 0.000119561 0.000119561 -4.90576e-06 4.05309 866.301 1489.39 
1022 0.0014 0.0014 0 0.000205761 0.000205761 5.25347e-05 4.51463 2302.02 2733.2 
1042 0.0026 0.0026 0 0.000347346 0.000347346 -5.51765e-05 7.37156 2606.33 4142.27 
1062 0.0028 0.0028 0 0.000128289 0.000128289 -2.22429e-05 7.5498 1255.83 2107.74 
1082 0.001 0.001 0 0.000126745 0.000126745 -0.00011134 2.57763 501.391 762.853 
1102 0.0028 0.0028 0 0.00025641 0.00025641 -2.84201e-05 7.74893 880.988 1295.59 
1122 0.0016 0.0016 0 0.00023942 0.00023942 9.63687e-05 3.5652 1584.62 1710.23 
1142 0.0016 0.0016 0 0.000117829 0.000117829 -7.67001e-05 4.11091 788.855 751.634 
1162 0.0016 0.0016 0 0.000278038 0.000278038 -4.40649e-05 3.62477 499.718 1242.61 
1182 0.0012 0.0012 0 0.000242075 0.000242075 1.08001e-05 3.82313 1615.95 1913.31 
1202 0.0014 0.0014 0 4.04138e-05 4.04138e-05 3.46177e-05 4.70117 372.173 960.691 
1222 0.0022 0.0022 0 0.000373796 0.000373796 -7.45236e-05 4.78934 3115.22 4285.28 
1242 0.0014 0.0014 0 0.000104227 0.000104227 3.30032e-05 2.99591 560.177 1452.22 
1262 0.001 0.001 0 0.000221161 0.000221161 3.45487e-05 2.28421 1109.17 1181.61 
3 0.0004 0.0004 0 0.000107062 0.000107062 1.89005e-05 12.7864 5998.13 10034.9 
23 0.0152 0.0152 0 0.00477319 0.00477319 -0.000119436 47.7319 9970.22 14642.9 
43 0.0166 0.0166 0 0.00452819 0.00452819 -4.28724e-05 45.2819 8467.6 12561.1 
63 0.0138 0.0138 0 0.00342013 0.00342013 0.000114766 34.2013 3736.6 9474.05 
83 0.018 0.018 0 0.00500771 0.00500771 0.000335682 50.0771 9720.29 12832.3 
103 0.0178 0.0178 0 0.00490809 0.00490809 -2.75579e-05 49.0809 9121.53 13104 
123 0.0148 0.0148 0 0.00401379 0.00401379 0.000160923 40.1379 6530.12 8061.49 
143 0.0172 0.0172 0 0.00483784 0.00483784 5.63732e-05 48.3784 7948.09 11271.1 
163 0.0174 0.0174 0 0.00447644 0.00447644 0.00018731 44.7644 7948.03 11383.7 
183 0.016 0.016 0 0.00386446 0.00386446 -0.000284393 38.6446 6389.88 8223.14 
203 0.016 0.016 0 0.00413097 0.00413097 8.99018e-05 41.3097 2423.81 4215.77 
223 0.019 0.019 0 0.00449394 0.00449394 -1.70286e-05 44.9394 6159.25 9635.81 
243 0.014 0.014 0 0.00382738 0.00382738 0.00019745 38.2738 6738.29 10405.5 
263 0.0196 0.0196 0 0.00546179 0.00546179 -0.000513035 54.6179 8873.87 11772.2 
283 0.0154 0.0154 0 0.00474624 0.00474624 0.000476269 47.4624 10285.6 12247 
303 0.0124 0.0124 0 0.00314037 0.00314037 0.000272059 31.4037 5764.75 8912.88 
323 0.0008 0.0008 0 0.000222279 0.000222279 0.000102338 20.6166 13060.1 13158.4 
343 0.001 0.001 0 0.000121497 0.000121497 -2.97592e-05 2.21047 767.435 1131.72 
363 0.0014 0.0014 0 0.0001643 0.0001643 -0.00013209 3.75755 1215.22 1623.26 
383 0.0024 0.0024 0 0.000255242 0.000255242 3.95806e-05 6.18558 1452.36 2838.65 
403 0.0012 0.0012 0 0.000102817 0.000102817 -9.9473e-05 3.14126 530.017 966.306 
423 0.0018 0.0018 0 0.000281457 0.000281457 -4.56456e-05 5.29055 1966.95 2852.24 
443 0.0024 0.0024 0 0.000157257 0.000157257 -0.000196688 7.10008 2758.1 4467.7 
463 0.0022 0.0022 0 0.000429385 0.000429385 -8.74212e-05 6.45221 3686.85 4135.33 
483 0.0014 0.0014 0 0.000147323 0.000147323 1.34993e-05 4.15886 1301.94 1382.42 
503 0.0018 0.0018 0 0.000177176 0.000177176 -1.48254e-05 5.20262 1648.05 2010.81 
523 0.0022 0.0022 0 0.000416975 0.000416975 -6.29148e-05 6.18844 4058.56 5405.3 
543 0.0016 0.0016 0 8.78675e-05 8.78675e-05 8.61936e-05 4.09315 569.88 778.748 
563 0.0022 0.0022 0 0.000199013 0.000199013 -5.92744e-05 6.53133 2085.44 2445.97 
583 0.002 0.002 0 0.000350242 0.000350242 -1.8122e-05 5.13625 2179.24 2428.04 
603 0.0022 0.0022 0 0.000269651 0.000269651 -2.0168e-05 6.12115 1396.9 2033.06 
623 0.0018 0.0018 0 0.000148955 0.000148955 0.000110069 4.17612 1131.28 1632.24 
643 0 0 0 0 0 0 0 0 0 
663 0 0 0 0 0 0 0 0 0 
683 0 0 0 0 0 0 0 0 0 
703 0 0 0 0 0 0 0 0 0 
723 0.0002 0.0002 0 -5.58516e-05 -5.58516e-05 2.3606e-05 0.558516 145.446 229.626 
743 0.0002 0.0002 0 -4.04674e-05 -4.04674e-05 -9.26162e-06 0.404674 25.6634 103.903 
763 0 0 0 0 0 0 0 0 0 
783 0 0 0 0 0 0 0 0 0 
803 0 0 0 0 0 0 0 0 0 
823 0 0 0 0 0 0 0 0 0 
843 0 0 0 0 0 0 0 0 0 
863 0 0 0 0 0 0 0 0 0 
883 0 0 0 0 0 0 0 0 0 
903 0 0 0 0 0 0 0 0 0 
923 0 0 0 0 0 0 0 0 0 
943 0 0 0 0 0 0 0 0 0 
963 0 0 0 0 0 0 0 0 0 
983 0.0012 0.0012 0 0.000212854 0.000212854 -3.95949e-05 2.76612 1382.29 1726.46 
1003 0.0006 0.0006 0 8.21368e-05 8.21368e-05 -3.24908e-05 1.23742 84.4423 157.935 
1023 0.0022 0.0022 0 0.000152189 0.000152189 4.13929e-05 6.71318 1115.07 1806.31 
1043 0.0032 0.0032 0 0.000379631 0.000379631 5.68934e-05 8.65092 3037.46 3757.93 
1063 0.0022 0.0022 0 0.000165298 0.000165298 -0.000107862 5.73607 1026.23 930.524 
1083 0.0026 0.0026 0 0.000448861 0.000448861 -0.000119918 9.06923 4285.42 4986.99 
1103 0.002 0.002 0 0.000283572 0.000283572 1.9876e-05 5.82456 2675.92 3652.08 
1123 0.002 0.002 0 0.000237514 0.000237514 -0.000102299 5.73107 1319.89 1669.84 
1143 0.0018 0.0018 0 0.000245349 0.000245349 -0.000101579 5.21177 1384.87 1904.62 
1163 0.001 0.001 0 6.45152e-05 6.45152e-05 -7.96779e-05 2.75741 538.568 587.868 
1183 0.0018 0.0018 0 0.000568278 0.000568278 -7.04518e-05 4.59029 3851.55 4299.27 
1203 0.0018 0.0018 0 0.000187648 0.000187648 4.70821e-05 3.60342 1405.26 2166.3 
1223 0.0026 0.0026 0 0.000386373 0.000386373 2.33218e-05 8.24309 2955.94 4162.05 
1243 0.0026 0.0026 0 0.000238977 0.000238977 0.000195965 6.74596 2877.42 3259.51 
1263 0.0022 0.0022 0 9.23554e-05 9.23554e-05 3.3111e-05 5.41653 1189.96 2778.77 
4 0.0004 0.0004 0 8.15864e-05 8.15864e-05 -2.34563e-05 9.89348 109.244 852.154 
24 0.0114 0.0114 0 0.00333071 0.00333071 -0.000146756 33.3071 6497.11 9727.11 
44 0.014 0.014 0 0.00358266 0.00358266 0.000360958 35.8266 8732.92 11441.5 
64 0.0174 0.0174 0 0.00443162 0.00443162 7.95971e-06 44.3162 6080.24 9200.05 
84 0.018 0.018 0 0.0051515 0.0051515 0.000170747 51.515 8475.62 12105.7 
104 0.0154 0.0154 0 0.0037716 0.0037716 -7.21595e-05 37.716 4510.72 7315.87 
124 0.015 0.015 0 0.00393911 0.00393911 -2.07618e-05 39.3911 8277.78 10370.6 
144 0.0166 0.0166 0 0.00429945 0.00429945 5.46368e-06 42.9945 10200.4 15493.1 
164 0.0192 0.0192 0 0.00503899 0.00503899 2.79548e-05 50.3899 8942.15 11417.5 
184 0.0176 0.0176 0 0.00441281 0.00441281 -0.000316066 44.1281 5932.96 9093.15 
204 0.0172 0.0172 0 0.00434852 0.00434852 2.34129e-05 43.4852 6141.88 8728.7 
224 0.0152 0.0152 0 0.00392042 0.00392042 0.00017876 39.2042 5856.63 9483.09 
244 0.0174 0.0174 0 0.00469968 0.00469968 0.000431577 46.9968 6167.41 9855.47 
264 0.0174 0.0174 0 0.00435954 0.00435954 2.12827e-05 43.5954 6063.57 7762.32 
284 0.0152 0.0152 0 0.00408742 0.00408742 -5.89513e-05 40.8742 10026.9 14038.3 
304 0.0178 0.0178 0 0.00492741 0.00492741 -0.000236496 49.2741 9691.67 14941 
324 0.0002 0.0002 0 5.1261e-05 5.1261e-05 -1.83373e-05 5.15818 444.705 1144.97 
344 0.0016 0.0016 0 0.000292252 0.000292252 9.03699e-05 3.42998 2124.24 2911.29 
364 0.0022 0.0022 0 0.000149476 0.000149476 0.000133968 5.6028 2196.34 2967.75 
384 0.0042 0.0042 0 0.000342614 0.000342614 0.000170224 9.89516 3808.65 4825.12 
404 0.0014 0.0014 0 8.16265e-05 8.16265e-05 -7.04385e-05 2.90205 838.625 1471.55 
424 0.002 0.002 0 0.000136824 0.000136824 9.40764e-05 6.18873 2729.72 4132.51 
444 0.002 0.002 0 0.000343127 0.000343127 -0.000149282 5.19561 1778.01 2544.24 
464 0.0018 0.0018 0 0.000195086 0.000195086 -5.28894e-05 5.36969 339.744 476.045 
484 0.0024 0.0024 0 0.000257126 0.000257126 -4.81259e-05 7.05868 2927.6 3607.51 
504 0.0014 0.0014 0 0.000177728 0.000177728 0.000120531 4.13473 1526.55 2078.17 
524 0.0024 0.0024 0 0.000315985 0.000315985 0.000126469 5.65723 1634.31 2044.35 
544 0.0014 0.0014 0 0.000280396 0.000280396 2.26063e-05 4.03746 1260.83 1806.8 
564 0.0008 0.0008 0 0.000118932 0.000118932 -1.47389e-05 2.18503 1542.67 1684.94 
584 0.0014 0.0014 0 -1.14871e-05 -1.14871e-05 -3.37164e-05 3.63795 167.463 240.913 
604 0.0024 0.0024 0 0.000274474 0.000274474 2.35069e-05 6.97529 1968.09 2508.24 
624 0.0006 0.0006 0 7.0331e-05 7.0331e-05 0.000170364 1.52256 683.71 879.643 
644 0 0 0 0 0 0 0 0 0 
664 0 0 0 0 0 0 0 0 0 
684 0 0 0 0 0 0 0 0 0 
704 0 0 0 0 0 0 0 0 0 
724 0 0 0 0 0 0 0 0 0 
744 0 0 0 0 0 0 0 0 0 
764 0 0 0 0 0 0 0 0 0 
784 0 0 0 0 0 0 0 0 0 
804 0 0 0 0 0 0 0 0 0 
824 0.0004 0.0004 0 -0.000115124 -0.000115124 -1.80265e-05 1.15124 224.242 248.909 
844 0.0002 0.0002 0 -3.79359e-05 -3.79359e-05 2.36245e-06 0.379359 0.605327 -35.9617 
864 0.0002 0.0002 0 -2.08833e-05 -2.08833e-05 -5.7395e-05 0.208833 112.028 144.851 
884 0 0 0 0 0 0 0 0 0 
904 0.0002 0.0002 0 -4.88414e-05 -4.88414e-05 -2.19508e-05 0.488414 46.8058 271.634 
924 0 0 0 0 0 0 0 0 0 
944 0 0 0 0 0 0 0 0 0 
964 0.0002 0.0002 0 3.83771e-05 3.83771e-05 -1.52154e-05 2.92343 3541.68 4368.84 
984 0.0014 0.0014 0 0.00011875 0.00011875 -1.48869e-05 3.32278 738.463 1996.83 
1004 0.0018 0.0018 0 0.000367865 0.000367865 5.19809e-05 5.06553 2601.89 2679.4 
1024 0.0026 0.0026 0 0.000474714 0.000474714 -4.97253e-05 5.7869 3124.43 3881.79 
1044 0.0018 0.0018 0 0.00035674 0.00035674 -0.000116964 4.49872 2488.72 3474.73 
1064 0.0018 0.0018 0 0.000228455 0.000228455 6.88042e-05 5.29823 1518.7 1679.69 
1084 0.0012 0.0012 0 8.39242e-05 8.39242e-05 2.14668e-05 2.81859 1190.54 1339.18 
1104 0.0018 0.0018 0 0.000282505 0.000282505 -7.19239e-05 4.56648 1845.86 1909.48 
1124 0.0016 0.0016 0 9.64661e-05 9.64661e-05 5.38542e-06 6.15593 2292 2894.02 
1144 0.0014 0.0014 0 0.00015478 0.00015478 -2.64008e-05 4.21162 1032.66 856.871 
1164 0.0026 0.0026 0 0.000355239 0.000355239 2.81498e-05 7.96788 2820.43 2827.8 
1184 0.0018 0.0018 0 0.000249324 0.000249324 1.6608e-05 5.43154 1709.58 2858.22 
1204 0.003 0.003 0 0.000548317 0.000548317 -3.42576e-05 7.90558 2414.86 3014.66 
1224 0.0014 0.0014 0 0.000204607 0.000204607 -7.64134e-05 4.14904 1948.83 2337.11 
1244 0.0022 0.0022 0 0.000328972 0.000328972 -5.66913e-05 5.31644 3175.89 3670.12 
1264 0.0022 0.0022 0 0.000271152 0.000271152 -0.0001431 5.86661 1817.07 2261.31 
5 0.0002 0.0002 0 3.68468e-05 3.68468e-05 3.65039e-05 2.95465 1174.3 2077.12 
25 0.0142 0.0142 0 0.00448966 0.00448966 8.39675e-05 44.8966 13772.1 17537.1 
45 0.0142 0.0142 0 0.00364917 0.00364917 0.000288725 36.4917 6497.16 10011.6 
65 0.0156 0.0156 0 0.00409784 0.00409784 0.00028665 40.9784 10331.7 13017.3 
85 0.0132 0.0132 0 0.00354032 0.00354032 0.00014413 35.4032 6466.37 9868.08 
105 0.015 0.015 0 0.00430027 0.00430027 -8.43309e-05 43.0027 9262.45 12957 
125 0.0154 0.0154 0 0.00388755 0.00388755 0.000220124 38.8755 6502.76 8374.05 
145 0.0186 0.0186 0 0.00499147 0.00499147 -0.00020963 49.9147 6601.85 8415.25 
165 0.015 0.015 0 0.0038285 0.0038285 0.000229158 38.285 6042.36 8904.03 
185 0.0194 0.0194 0 0.00540796 0.00540796 0.000185368 54.0796 8570.07 11179.2 
205 0.017 0.017 0 0.00421935 0.00421935 5.08279e-05 42.1935 5764.06 8466.1 
225 0.016 0.016 0 0.00435106 0.00435106 -0.000100006 43.5106 6662.19 12521.4 
245 0.013 0.013 0 0.00352734 0.00352734 0.000194932 35.2734 7419.25 10187 
265 0.0154 0.0154 0 0.00447262 0.00447262 -4.47931e-05 44.7262 5983.07 8260.68 
285 0.0154 0.0154 0 0.00403183 0.00403183 -0.00011586 40.3183 6736.96 10838.2 
305 0.016 0.016 0 0.00470257 0.00470257 2.05611e-05 47.0257 13221.3 17710.8 
325 0.0008 0.0008 0 0.000189265 0.000189265 8.75295e-05 21.8344 3886.16 6078.71 
345 0.0016 0.0016 0 0.000467951 0.000467951 -0.000136032 3.76107 2838.64 4023.53 
365 0.0024 0.0024 0 0.000405961 0.000405961 2.60911e-05 6.27303 2476.64 4141.67 
385 0.002 0.002 0 9.78004e-05 9.78004e-05 4.95781e-05 5.65052 545.036 1084.6 
405 0.001 0.001 0 0.000123986 0.000123986 6.8322e-05 2.64099 361.812 679.406 
425 0.0014 0.0014 0 0.000250343 0.000250343 -1.02573e-05 3.55015 1353.38 1557.83 
445 0.0026 0.0026 0 0.000254329 0.000254329 0.000122927 7.03342 1987.26 2496 
465 0.0028 0.0028 0 0.000343406 0.000343406 -1.27025e-06 6.52155 3448.31 3653.09 
485 0.0016 0.0016 0 0.000106384 0.000106384 5.82764e-06 2.95469 783.171 1391.81 
505 0.0008 0.0008 0 0.000111311 0.000111311 -8.19677e-06 1.69055 204.07 147.239 
525 0.002 0.002 0 0.000189459 0.000189459 2.39087e-05 5.40015 3094.09 3771.7 
545 0.0018 0.0018 0 0.000168715 0.000168715 2.23396e-05 5.29758 1022.41 1145.72 
565 0.0022 0.0022 0 0.000128786 0.000128786 -0.000204461 5.94044 1426.86 3491.56 
585 0.0018 0.0018 0 0.000166416 0.000166416 6.38987e-05 5.02298 2071.91 2564.81 
605 0.0028 0.0028 0 0.000412879 0.000412879 -0.000169354 7.47867 2888.43 4524.82 
625 0.0008 0.0008 0 2.62612e-05 2.62612e-05 2.87816e-05 1.86624 358.101 798.988 
645 0 0 0 0 0 0 0 0 0 
665 0.0002 0.0002 0 -6.36425e-05 -6.36425e-05 -2.69558e-05 0.636425 -180.23 369.932 
685 0 0 0 0 0 0 0 0 0 
705 0 0 0 0 0 0 0 0 0 
725 0.0002 0.0002 0 -4.33602e-05 -4.33602e-05 -6.34647e-05 0.433602 60.6464 29.6067 
745 0 0 0 0 0 0 0 0 0 
765 0 0 0 0 0 0 0 0 0 
785 0 0 0 0 0 0 0 0 0 
805 0.0002 0.0002 0 -8.79947e-05 -8.79947e-05 -2.34541e-05 0.879947 -131.041 -170.867 
825 0.0002 0.0002 0 -3.88387e-05 -3.88387e-05 1.20362e-05 0.388387 -135.944 -167.984 
845 0 0 0 0 0 0 0 0 0 
865 0 0 0 0 0 0 0 0 0 
885 0.0002 0.0002 0 -3.728e-05 -3.728e-05 -3.04381e-05 0.3728 31.1525 50.6443 
905 0 0 0 0 0 0 0 0 0 
925 0.0002 0.0002 0 -2.80853e-05 -2.80853e-05 -2.84318e-05 0.280853 388.209 399.428 
945 0 0 0 0 0 0 0 0 0 
965 0 0 0 0 0 0 0 0 0 
985 0.0016 0.0016 0 0.000293318 0.000293318 7.21778e-05 4.71621 2177.79 2707.7 
1005 0.0014 0.0014 0 0.000137916 0.000137916 2.7297e-05 2.66877 724.926 1186.83 
1025 0.002 0.002 0 0.000263968 0.000263968 0.00019929 5.15037 1858.17 2642.6 
1045 0.0014 0.0014 0 0.000151223 0.000151223 2.53977e-05 4.1125 1214.85 1522.2 
1065 0.0022 0.0022 0 0.000388648 0.000388648 -1.31497e-05 6.52702 1986.99 2271.66 
1085 0.001 0.001 0 0.000169879 0.000169879 1.90267e-05 2.95567 1039.2 2403.71 
1105 0.002 0.002 0 0.000216042 0.000216042 3.64466e-05 5.12361 2070.82 3103.37 
1125 0.002 0.002 0 0.000212678 0.000212678 -1.48675e-05 7.15159 3755.92 4060.71 
1145 0.0016 0.0016 0 0.0002836 0.0002836 2.89351e-05 4.54347 1705.33 1843.62 
1165 0.0028 0.0028 0 0.000428506 0.000428506 -5.03874e-05 6.69852 3022.43 3990.74 
1185 0.002 0.002 0 0.000216723 0.000216723 9.18537e-05 6.21806 1185.97 1699.82 
1205 0.0024 0.0024 0 0.000309778 0.000309778 0.000111721 5.54906 1908.12 3239.18 
1225 0.002 0.002 0 0.000221094 0.000221094 1.69515e-05 5.92532 1380.87 1950.73 
1245 0.001 0.001 0 8.91467e-05 8.91467e-05 -7.95985e-05 2.05556 1182.12 1354.74 
1265 0.0022 0.0022 0 0.000276788 0.000276788 4.11808e-05 5.52995 1868.29 3233.38 
6 0.0006 0.0006 0 0.000145847 0.000145847 7.66917e-05 17.9116 5897.57 6983.66 
26 0.0138 0.0138 0 0.00396538 0.00396538 -0.000534172 39.6538 11606.4 13656.3 
46 0.0148 0.0148 0 0.00417319 0.00417319 -0.000355201 41.7319 8592.26 11227.2 
66 0.015 0.015 0 0.00413357 0.00413357 2.95711e-05 41.3357 8811.88 13065.8 
86 0.016 0.016 0 0.00453255 0.00453255 0.000145555 45.3255 8462.99 12043.6 
106 0.0182 0.0182 0 0.00489548 0.00489548 -0.000272259 48.9548 8261.52 12291.7 
126 0.0148 0.0148 0 0.00381634 0.00381634 -0.000333729 38.1634 7783.07 10660.4 
146 0.016 0.016 0 0.00416056 0.00416056 -1.33867e-06 41.6056 6985.57 7965.56 
166 0.0204 0.0204 0 0.00537157 0.00537157 -6.53604e-05 53.7157 7494.99 11880.9 
186 0.0144 0.0144 0 0.00345926 0.00345926 -7.19648e-05 34.5926 5883.74 7095.73 
206 0.0144 0.0144 0 0.00373916 0.00373916 -4.26842e-05 37.3916 7762.47 11986.4 
226 0.0164 0.0164 0 0.00425694 0.00425694 0.00024107 42.5694 9479.21 11852.7 
246 0.0166 0.0166 0 0.00452284 0.00452284 0.000136976 45.2284 11012.4 13878.2 
266 0.014 0.014 0 0.00396271 0.00396271 0.000105541 39.6271 6474.79 8653.53 
286 0.0124 0.0124 0 0.00356069 0.00356069 0.000148475 35.6069 8252.3 12782.8 
306 0.013 0.013 0 0.00379582 0.00379582 -0.000144071 37.9582 6833.95 10396.2 
326 0.0002 0.0002 0 7.8059e-05 7.8059e-05 2.55785e-05 6.01525 -338.071 -460.723 
346 0.0018 0.0018 0 0.000384739 0.000384739 4.89556e-05 4.63381 2532.68 3166.59 
366 0.0012 0.0012 0 0.00029712 0.00029712 -5.10741e-05 2.60526 770.064 792.728 
386 0.0014 0.0014 0 0.000223163 0.000223163 7.42732e-05 3.17815 815.827 1448.63 
406 0.0038 0.0038 0 0.000219292 0.000219292 -1.5758e-06 11.8199 3063.24 4080.4 
426 0.0024 0.0024 0 0.000138411 0.000138411 0.000124027 6.29454 1266.7 2736.14 
446 0.001 0.001 0 0.00021437 0.00021437 -0.000112423 3.22561 914.531 1794.31 
466 0.0008 0.0008 0 0.0001515 0.0001515 -8.72156e-05 2.42872 1332.5 1981.25 
486 0.0016 0.0016 0 0.000379172 0.000379172 7.30499e-06 4.66786 2924.61 4303.61 
506 0.0014 0.0014 0 0.000256893 0.000256893 6.3082e-05 4.17333 1458.54 1972.01 
526 0.0012 0.0012 0 0.000136553 0.000136553 1.68706e-05 3.56642 583.688 902.786 
546 0.0014 0.0014 0 0.000188745 0.000188745 8.80734e-05 3.93898 2384.5 2831.07 
566 0.0008 0.0008 0 9.74539e-05 9.74539e-05 3.23203e-05 1.99732 621.917 909.621 
586 0.003 0.003 0 0.000397563 0.000397563 -0.000299623 9.41824 2977.86 3772.18 
606 0.0016 0.0016 0 6.17105e-05 6.17105e-05 -3.84503e-05 4.23307 1180.98 1735.64 
626 0.0006 0.0006 0 9.30693e-05 9.30693e-05 8.11928e-06 0.953878 416.584 451.492 
646 0 0 0 0 0 0 0 0 0 
666 0.0002 0.0002 0 -3.88698e-05 -3.88698e-05 -3.24381e-05 0.388698 61.7224 107.49 
686 0 0 0 0 0 0 0 0 0 
706 0 0 0 0 0 0 0 0 0 
726 0 0 0 0 0 0 0 0 0 
746 0 0 0 0 0 0 0 0 0 
766 0 0 0 0 0 0 0 0 0 
786 0.0002 0.0002 0 -5.67757e-05 -5.67757e-05 6.88781e-06 0.567757 -15.1267 -14.3664 
806 0 0 0 0 0 0 0 0 0 
826 0.0002 0.0002 0 -5.18846e-05 -5.18846e-05 3.75813e-05 0.518846 188.043 240.16 
846 0 0 0 0 0 0 0 0 0 
866 0.0002 0.0002 0 -1.41065e-05 -1.41065e-05 3.10747e-05 0.141065 35.1597 34.2114 
886 0.0002 0.0002 0 -3.6427e-05 -3.6427e-05 1.30523e-05 0.36427 89.98 33.056 
906 0 0 0 0 0 0 0 0 0 
926 0.0002 0.0002 0 -3.38616e-05 -3.38616e-05 3.09427e-05 0.338616 224.438 212.209 
946 0 0 0 0 0 0 0 0 0 
966 0 0 0 0 0 0 0 0 0 
986 0.0014 0.0014 0 0.000218322 0.000218322 0.000132038 4.21911 2674.47 3770.08 
1006 0.0012 0.0012 0 0.000173106 0.000173106 -0.000121726 3.53368 756.551 860.894 
1026 0.0016 0.0016 0 0.000343461 0.000343461 0.000124507 3.92111 2039.02 2567.33 
1046 0.0028 0.0028 0 0.000162137 0.000162137 4.33077e-05 8.08999 1216.77 2102.25 
1066 0.0018 0.0018 0 0.000159966 0.000159966 6.26083e-05 5.2438 1531.16 1925.08 
1086 0.002 0.002 0 0.00014232 0.00014232 -9.07306e-05 3.9076 755.013 2040.95 
1106 0.001 0.001 0 0.000191456 0.000191456 -5.74084e-05 3.41257 1372.13 1905.24 
1126 0.0012 0.0012 0 0.000216725 0.000216725 6.08465e-05 3.26128 684.066 1090.84 
1146 0.003 0.003 0 0.000376974 0.000376974 5.76241e-05 8.62314 2948.5 3694.42 
1166 0.0016 0.0016 0 0.000216953 0.000216953 0.000115951 4.7476 1583.98 2106.18 
1186 0.0034 0.0034 0 0.000259667 0.000259667 2.34381e-05 9.28503 2539.53 4135.76 
1206 0.0022 0.0022 0 0.000195863 0.000195863 9.92796e-05 5.00366 1506.18 2028.8 
1226 0.0022 0.0022 0 0.000381369 0.000381369 -0.000103274 5.05368 1387.71 1732.59 
1246 0.003 0.003 0 0.000430343 0.000430343 -0.000150418 6.16055 1786.78 3301.76 
1266 0.003 0.003 0 0.000394445 0.000394445 0.000133384 7.28412 2821.47 5470.32 
7 0.0004 0.0004 0 8.68579e-05 8.68579e-05 -4.84688e-06 12.4307 2374.68 2814.96 
27 0.0114 0.0114 0 0.0031675 0.0031675 0.000291183 31.675 8098.11 12901.1 
47 0.0178 0.0178 0 0.00483353 0.00483353 9.84532e-05 48.3353 10853 14383.3 
67 0.0192 0.0192 0 0.00566484 0.00566484 -0.000184587 56.6484 12160.4 15780.5 
87 0.0168 0.0168 0 0.00461678 0.00461678 0.000471455 46.1678 8143.32 13073.7 
107 0.0168 0.0168 0 0.00422751 0.00422751 -2.02124e-06 42.2751 6716.08 8939.72 
127 0.0152 0.0152 0 0.00415261 0.00415261 8.17072e-05 41.5261 5926.58 7061.92 
147 0.0162 0.0162 0 0.00413321 0.00413321 0.000197681 41.3321 6656.52 8350.6 
167 0.0198 0.0198 0 0.00544388 0.00544388 -0.000188844 54.4388 8212.43 10166 
187 0.0168 0.0168 0 0.00474493 0.00474493 3.88756e-05 47.4493 9388.99 12975.5 
207 0.0164 0.0164 0 0.00465786 0.00465786 4.36347e-05 46.5786 9706 13207.3 
227 0.0178 0.0178 0 0.00478897 0.00478897 -0.00045146 47.8897 6712.95 8879.3 
247 0.0178 0.0178 0 0.00470868 0.00470868 -0.000254062 47.0868 11640.2 17800.1 
267 0.0164 0.0164 0 0.00432919 0.00432919 0.000147777 43.2919 5118.68 8316.62 
287 0.0164 0.0164 0 0.00444732 0.00444732 -0.000118827 44.4732 10855.9 13693.5 
307 0.0146 0.0146 0 0.0048125 0.0048125 0.000416207 48.125 13854.6 17507.6 
327 0.0004 0.0004 0 7.1451e-05 7.1451e-05 -2.45638e-05 9.76755 2899.37 7232.14 
347 0.001 0.001 0 -1.71446e-05 -1.71446e-05 0.000122943 3.05545 417.352 1004.84 
367 0.0012 0.0012 0 0.000229177 0.000229177 6.17159e-05 2.77967 1071.29 1481.15 
387 0.0014 0.0014 0 8.09387e-05 8.09387e-05 -5.94277e-06 3.00785 312.135 433.631 
407 0.0026 0.0026 0 0.000300038 0.000300038 -0.000132753 6.08932 1933.7 4098.26 
427 0.0022 0.0022 0 0.000156967 0.000156967 -9.60389e-05 5.68852 2029.9 2447.46 
447 0.0016 0.0016 0 0.000285588 0.000285588 5.07952e-05 3.79806 1811.7 2034.89 
467 0.0024 0.0024 0 0.000259464 0.000259464 -4.63405e-05 5.39369 1068.93 1101.37 
487 0.0016 0.0016 0 0.000191654 0.000191654 -2.99358e-06 3.55397 602.569 1396.05 
507 0.0026 0.0026 0 0.000265754 0.000265754 0.000116172 6.54859 1420.62 1709.38 
527 0.0012 0.0012 0 0.000105331 0.000105331 -8.51089e-05 2.52053 586.296 846.07 
547 0.0014 0.0014 0 0.00020094 0.00020094 9.57722e-05 4.16479 414.131 708.203 
567 0.002 0.002 0 0.000281144 0.000281144 5.15583e-05 5.10198 2706.85 2753.86 
587 0.0022 0.0022 0 0.000250975 0.000250975 -3.74577e-05 5.14154 1882.43 2849.34 
607 0.0018 0.0018 0 0.000312473 0.000312473 2.43271e-05 6.70999 2605.75 2764.9 
627 0.0018 0.0018 0 0.000289666 0.000289666 -6.07546e-05 5.03434 1146.65 1662.28 
647 0 0 0 0 0 0 0 0 0 
667 0 0 0 0 0 0 0 0 0 
687 0 0 0 0 0 0 0 0 0 
707 0 0 0 0 0 0 0 0 0 
727 0 0 0 0 0 0 0 0 0 
747 0 0 0 0 0 0 0 0 0 
767 0 0 0 0 0 0 0 0 0 
787 0.0002 0.0002 0 -2.71558e-05 -2.71558e-05 -2.93349e-05 0.271558 30.7619 57.9253 
807 0 0 0 0 0 0 0 0 0 
827 0 0 0 0 0 0 0 0 0 
847 0 0 0 0 0 0 0 0 0 
867 0 0 0 0 0 0 0 0 0 
887 0 0 0 0 0 0 0 0 0 
907 0 0 0 0 0 0 0 0 0 
927 0.0002 0.0002 0 -3.00552e-05 -3.00552e-05 4.72503e-05 0.300552 128.334 403.427 
947 0 0 0 0 0 0 0 0 0 
967 0 0 0 0 0 0 0 0 0 
987 0.0024 0.0024 0 0.000400404 0.000400404 4.6171e-05 6.41827 3354.32 4003.36 
1007 0.0016 0.0016 0 0.000155033 0.000155033 9.91366e-05 3.56962 1051.02 923.402 
1027 0.0018 0.0018 0 0.00034542 0.00034542 -2.61801e-05 3.77495 1944.97 2033.46 
1047 0.001 0.001 0 2.10532e-05 2.10532e-05 -1.94139e-05 3.51317 194.891 227.457 