ITEM: TIMESTEP
25000
ITEM: NUMBER OF SURFS
1272
ITEM: BOX BOUNDS oo rr pp
0 0.3
0 0.3
-0.5 0.5
ITEM: SURFS id f_4[1] f_4[2] f_4[3] f_4[4] f_4[5] f_4[6] f_4[7] f_4[8] f_4[9] 
1 0.0124 0.0124 0 0.000242477 0.000242477 1.16602e-07 55.6867 7749.52 11168.5 
33 0.7562 0.7562 0 0.0382587 0.0382587 -0.000311413 382.587 59004.5 77286.4 
65 0.8218 0.8218 0 0.0406456 0.0406456 -0.000129555 406.456 52027.1 70226.7 
97 0.8574 0.8574 0 0.042211 0.042211 0.000476118 422.11 45713.4 65521.3 
129 0.8632 0.8632 0 0.0422409 0.0422409 -0.000242457 422.409 47854.8 65738.6 
161 0.881 0.881 0 0.0434621 0.0434621 0.000948094 434.621 46336.8 63093.9 
193 0.937 0.937 0 0.046045 0.046045 -2.46524e-05 460.45 52287.8 72617.8 
225 0.9066 0.9066 0 0.0446218 0.0446218 0.000169103 446.218 51826.7 69255.3 
257 0.8444 0.8444 0 0.0418557 0.0418557 -0.000500102 418.557 53520.4 71731.2 
289 0.7874 0.7874 0 0.0394647 0.0394647 0.000514203 394.647 51714.7 69898.5 
321 0.044 0.044 0 0.00237635 0.00237635 -2.11993e-05 232.672 40881.6 58332.9 
353 0.069 0.069 0 0.00135651 0.00135651 -1.0461e-05 34.9283 6619.1 8624.14 
385 0.0816 0.0816 0 0.000909213 0.000909213 8.58857e-05 40.191 6932.01 8664.74 
417 0.0868 0.0868 0 0.00102716 0.00102716 -0.000124588 44.4506 5570.01 8021.06 
449 0.0854 0.0854 0 0.000755413 0.000755413 -0.000160407 42.536 5527.99 7947.55 
481 0.0954 0.0954 0 0.000985859 0.000985859 0.000169834 44.5801 4368.21 6181.61 
513 0.0952 0.0952 0 0.00105204 0.00105204 1.37685e-05 45.8629 4639.3 6161.07 
545 0.089 0.089 0 0.000695685 0.000695685 -8.81135e-05 43.4477 4391.83 6237.15 
577 0.0872 0.0872 0 0.000760249 0.000760249 -0.000141183 41.9332 3840.83 5104.65 
609 0.0778 0.0778 0 0.000926887 0.000926887 1.22868e-05 37.9361 3940.92 4668.03 
641 0.0026 0.0026 0 -1.6078e-05 -1.6078e-05 -7.81601e-07 13.1312 2525.17 4393.31 
673 0.0108 0.0108 0 -0.000486989 -0.000486989 -1.24408e-05 4.86989 149.89 247.297 
705 0.0168 0.0168 0 -0.000742163 -0.000742163 0.000111983 7.42163 390.605 849.036 
737 0.0194 0.0194 0 -0.00090706 -0.00090706 -3.83063e-05 9.0706 816.909 940.504 
769 0.0234 0.0234 0 -0.00114246 -0.00114246 -2.37453e-05 11.4246 511.597 853.237 
801 0.025 0.025 0 -0.00121649 -0.00121649 2.11074e-05 12.1649 789.63 895.232 
833 0.0208 0.0208 0 -0.00103103 -0.00103103 3.56853e-05 10.3103 713.226 930.89 
865 0.0202 0.0202 0 -0.000885179 -0.000885179 8.43215e-05 8.85179 461.09 732.03 
897 0.0206 0.0206 0 -0.000996327 -0.000996327 1.68939e-05 9.96327 427.891 685.215 
929 0.01 0.01 0 -0.000464651 -0.000464651 2.31417e-05 4.64651 416.868 547.061 
961 0.0006 0.0006 0 -1.50183e-05 -1.50183e-05 -2.28028e-06 2.8685 334.133 583.359 
993 0.085 0.085 0 0.000924691 0.000924691 0.000148285 40.0169 4746.05 6707.63 
1025 0.092 0.092 0 0.000920942 0.000920942 -6.15873e-05 44.6698 5350.87 6450.69 
1057 0.0908 0.0908 0 0.000772035 0.000772035 -0.000113263 44.6597 5186.43 6776.48 
1089 0.0984 0.0984 0 0.000885694 0.000885694 -9.20539e-05 46.2924 5162.3 7350.41 
1121 0.087 0.087 0 0.000969306 0.000969306 -3.72534e-05 43.0309 6456.9 8088.78 
1153 0.0946 0.0946 0 0.00100764 0.00100764 -0.000144211 46.6568 5167.67 6923.02 
1185 0.1018 0.1018 0 0.00134837 0.00134837 3.93443e-05 49.4964 6856.8 8787.23 
1217 0.0908 0.0908 0 0.00114996 0.00114996 -0.00013535 45.5464 7505.46 9493.92 
1249 0.0772 0.0772 0 0.00152595 0.00152595 4.64017e-05 38.7881 8475.14 11348.4 
2 0.0088 0.0088 0 0.000287583 0.000287583 -1.22389e-05 42.7413 11137 17619 
34 0.7434 0.7434 0 0.0373478 0.0373478 6.48628e-05 373.478 54122.4 72810.5 
66 0.7932 0.7932 0 0.0392073 0.0392073 8.20071e-05 392.073 47006.4 66191.8 
98 0.874 0.874 0 0.0427898 0.0427898 6.78981e-05 427.898 47850.5 66034.3 
130 0.9432 0.9432 0 0.0465026 0.0465026 0.000234414 465.026 50376.8 69809.1 
162 0.9132 0.9132 0 0.0450568 0.0450568 -0.000533217 450.568 46700.4 65735 
194 0.9196 0.9196 0 0.0450419 0.0450419 -7.35293e-05 450.419 47898.9 67459.8 
226 0.8842 0.8842 0 0.0436301 0.0436301 -0.000129647 436.301 48572.6 66178.1 
258 0.8416 0.8416 0 0.0417735 0.0417735 -0.000233777 417.735 52274.5 70181.7 
290 0.7954 0.7954 0 0.039558 0.039558 0.000333842 395.58 55432.8 73149 
322 0.0372 0.0372 0 0.00198274 0.00198274 -1.22346e-05 196.755 33734.4 44185.6 
354 0.0826 0.0826 0 0.0014472 0.0014472 -2.21444e-05 41.6627 8289.5 10503.5 
386 0.0954 0.0954 0 0.00142965 0.00142965 0.000138892 48.0721 6542.28 9061.52 
418 0.0926 0.0926 0 0.00094335 0.00094335 4.0913e-05 44.0705 5788.8 7871.08 
450 0.0888 0.0888 0 0.0011178 0.0011178 9.11349e-06 42.3939 6216.18 7984.05 
482 0.091 0.091 0 0.000754878 0.000754878 7.02605e-05 43.948 5079.71 6640.01 
514 0.0954 0.0954 0 0.000821206 0.000821206 5.85785e-05 44.6702 4077.95 6244.7 
546 0.0972 0.0972 0 0.000957669 0.000957669 6.60984e-05 46.9664 4521.69 6222.69 
578 0.091 0.091 0 0.000943507 0.000943507 -8.64854e-05 43.541 5544.6 6774.21 
610 0.0788 0.0788 0 0.000614886 0.000614886 -0.000117906 36.8732 4104.47 5323.07 
642 0.0026 0.0026 0 -4.70144e-05 -4.70144e-05 -4.03433e-06 12.3794 62.2685 1015.78 
674 0.0104 0.0104 0 -0.000448385 -0.000448385 2.17753e-05 4.48385 155.453 289.798 
706 0.0158 0.0158 0 -0.000698456 -0.000698456 2.70669e-05 6.98456 266.57 510.552 
738 0.0176 0.0176 0 -0.000800723 -0.000800723 -1.64078e-05 8.00723 648.659 625.894 
770 0.022 0.022 0 -0.000907973 -0.000907973 -3.28862e-05 9.07973 465.727 761.727 
802 0.0214 0.0214 0 -0.00105604 -0.00105604 6.43508e-05 10.5604 818.073 1080.17 
834 0.0222 0.0222 0 -0.00097108 -0.00097108 7.8852e-05 9.7108 977.632 1269.12 
866 0.0194 0.0194 0 -0.000898062 -0.000898062 -2.66629e-05 8.98062 1040.03 1150.24 
898 0.0186 0.0186 0 -0.000863707 -0.000863707 7.87397e-05 8.63707 523.475 883.927 
930 0.011 0.011 0 -0.000478912 -0.000478912 -3.57504e-05 4.78912 389.005 514.157 
962 0.002 0.002 0 -4.67906e-05 -4.67906e-05 -1.10932e-05 10.0534 1180.96 998.055 
994 0.0826 0.0826 0 0.000924428 0.000924428 -7.35746e-05 39.9426 4520.22 5815.65 
1026 0.0894 0.0894 0 0.000763174 0.000763174 -3.05112e-05 42.5711 4816.47 7032.36 
1058 0.101 0.101 0 0.000783205 0.000783205 8.62626e-05 46.5841 5137.61 6910.64 
1090 0.0984 0.0984 0 0.00104876 0.00104876 -9.22874e-05 46.3618 5666.16 7291.09 
1122 0.0958 0.0958 0 0.000977961 0.000977961 -7.81579e-05 46.4679 6089.83 7276 
1154 0.0934 0.0934 0 0.000842652 0.000842652 -8.00328e-05 45.7858 5723.97 7389.9 
1186 0.0978 0.0978 0 0.000888026 0.000888026 5.36663e-05 46.0018 5936.52 8359.65 
1218 0.0882 0.0882 0 0.00118987 0.00118987 5.38074e-05 44.2441 7186.07 8914.23 
1250 0.0778 0.0778 0 0.00147259 0.00147259 0.000101694 38.505 8216.14 10328 
3 0.0126 0.0126 0 0.000496109 0.000496109 7.31627e-05 61.8987 13398.9 18012 
35 0.7288 0.7288 0 0.0371935 0.0371935 -3.40308e-05 371.935 52482.3 68327 
67 0.8232 0.8232 0 0.0405555 0.0405555 -0.000386406 405.555 46126 63095.5 
99 0.8958 0.8958 0 0.0437001 0.0437001 -0.000280207 437.001 49448.9 65122.7 
131 0.9342 0.9342 0 0.0457712 0.0457712 -0.000179436 457.712 51189.5 71010 
163 0.9252 0.9252 0 0.0455754 0.0455754 0.000368494 455.754 48957.7 67688.1 
195 0.881 0.881 0 0.0434028 0.0434028 -0.000303504 434.028 50843.9 66187.1 
227 0.8464 0.8464 0 0.0419573 0.0419573 -0.000361572 419.573 46454.8 65108.1 
259 0.858 0.858 0 0.0422205 0.0422205 0.000109651 422.205 52041.1 71471.1 
291 0.8012 0.8012 0 0.0401662 0.0401662 5.28905e-05 401.662 54806.1 73658.1 
323 0.0324 0.0324 0 0.00162806 0.00162806 5.39063e-06 169.164 27052.9 34908.7 
355 0.0734 0.0734 0 0.00132826 0.00132826 -0.000104598 35.4732 7254.31 9367.58 
387 0.0854 0.0854 0 0.00112437 0.00112437 -0.000165908 40.4099 6152.53 8217.21 
419 0.091 0.091 0 0.00106105 0.00106105 0.000198116 46.2185 6965.5 9578.18 
451 0.1016 0.1016 0 0.000872833 0.000872833 -0.000114637 50.3039 6825.47 8923.23 
483 0.091 0.091 0 0.000905686 0.000905686 -9.09992e-05 45.3158 5555.71 7531.12 
515 0.1006 0.1006 0 0.00104212 0.00104212 2.37975e-06 48.5688 5139.99 6801.12 
547 0.0966 0.0966 0 0.000815505 0.000815505 -1.06449e-05 46.7422 5782.44 7551.64 
579 0.1 0.1 0 0.000968969 0.000968969 -9.70438e-05 47.6391 4486.33 6417.65 
611 0.0832 0.0832 0 0.00101029 0.00101029 0.00017042 38.3648 5254.27 6647.54 
643 0.0022 0.0022 0 -1.04544e-05 -1.04544e-05 -4.36027e-06 8.06763 1289.49 1105 
675 0.0146 0.0146 0 -0.000632552 -0.000632552 -5.72116e-05 6.32552 143.963 532.29 
707 0.0172 0.0172 0 -0.00080843 -0.00080843 -9.81668e-05 8.0843 470.166 860.322 
739 0.02 0.02 0 -0.000979251 -0.000979251 -5.50276e-05 9.79251 587.235 853.045 
771 0.022 0.022 0 -0.00101762 -0.00101762 3.35581e-05 10.1762 573.677 598.595 
803 0.0222 0.0222 0 -0.00105002 -0.00105002 7.47301e-05 10.5002 135.289 578.32 
835 0.0228 0.0228 0 -0.00103222 -0.00103222 9.46769e-05 10.3222 591.838 1055.53 
867 0.018 0.018 0 -0.000831353 -0.000831353 6.39559e-05 8.31353 615.691 921.479 
899 0.0156 0.0156 0 -0.000793514 -0.000793514 -3.26725e-05 7.93514 673.495 1169.8 
931 0.006 0.006 0 -0.000251948 -0.000251948 2.27714e-05 2.51948 -62.1279 207.944 
963 0.002 0.002 0 -4.53325e-05 -4.53325e-05 1.25589e-05 9.38356 723.43 1133.83 
995 0.075 0.075 0 0.000737271 0.000737271 -1.72207e-05 35.8432 4505.94 5697.56 
1027 0.0868 0.0868 0 0.000640364 0.000640364 1.14065e-05 40.787 4755.21 6705.29 
1059 0.0914 0.0914 0 0.0006388 0.0006388 -6.56514e-05 43.6659 3972.08 5481.88 
1091 0.0996 0.0996 0 0.000866233 0.000866233 2.49896e-05 49.5662 6047.64 8271.27 
1123 0.0934 0.0934 0 0.000940002 0.000940002 -0.000183032 43.1444 6141.28 7935.45 
1155 0.0956 0.0956 0 0.00111213 0.00111213 -3.24547e-05 47.0877 6839.65 8547.23 
1187 0.1096 0.1096 0 0.00122214 0.00122214 -1.47013e-05 53.968 7039.5 9311.05 
1219 0.0878 0.0878 0 0.00129818 0.00129818 0.000112484 41.4722 6984.61 9805.88 
1251 0.071 0.071 0 0.00138193 0.00138193 -3.71171e-06 34.4569 6733.95 8922 
4 0.0138 0.0138 0 0.000463634 0.000463634 3.07466e-05 73.5706 5802.14 11960 
36 0.7508 0.7508 0 0.0375974 0.0375974 -0.000220323 375.974 53041.4 72898.5 
68 0.8492 0.8492 0 0.0420227 0.0420227 0.000412499 420.227 51813.8 70366.3 
100 0.8966 0.8966 0 0.043875 0.043875 -1.87758e-05 438.75 50725.7 69514.5 
132 0.8946 0.8946 0 0.0441044 0.0441044 0.000527451 441.044 48334.8 64861.3 
164 0.8846 0.8846 0 0.0435476 0.0435476 0.000320925 435.476 48609.5 66029.8 
196 0.8972 0.8972 0 0.0434835 0.0434835 0.000146056 434.835 50560.4 69069.4 
228 0.8564 0.8564 0 0.0423033 0.0423033 0.000127823 423.033 47785.1 68102.5 
260 0.8606 0.8606 0 0.0422634 0.0422634 0.000278537 422.634 50818.6 71797.3 
292 0.8116 0.8116 0 0.0407574 0.0407574 6.96699e-05 407.574 57263.5 75167.3 
324 0.0276 0.0276 0 0.001381 0.001381 4.56679e-05 144.782 25439.2 33022.8 
356 0.0876 0.0876 0 0.00173587 0.00173587 -3.30651e-05 42.5274 8899.95 11776.1 
388 0.0896 0.0896 0 0.00130468 0.00130468 -4.14014e-05 44.2521 7386.86 9432.55 
420 0.0914 0.0914 0 0.000928969 0.000928969 -3.24261e-05 44.5452 4689.09 6231.33 
452 0.0954 0.0954 0 0.00105268 0.00105268 -4.99892e-05 45.8711 6015.7 8226.73 
484 0.098 0.098 0 0.000953173 0.000953173 -2.97158e-05 48.0866 5591.73 7513.44 
516 0.0936 0.0936 0 0.000637102 0.000637102 9.20673e-05 44.2153 5236.54 7248.88 
548 0.0838 0.0838 0 0.000851676 0.000851676 -7.26961e-05 39.9379 4057.62 5057.15 
580 0.0896 0.0896 0 0.000764245 0.000764245 3.84275e-05 44.1964 4221.04 5876.51 
612 0.0726 0.0726 0 0.000810089 0.000810089 -2.63839e-05 33.5931 4715.17 5838.41 
644 0.0016 0.0016 0 -1.69392e-05 -1.69392e-05 -2.13808e-05 5.85212 1856.9 1753.48 
676 0.0098 0.0098 0 -0.000415245 -0.000415245 -2.85124e-05 4.15245 379.227 670.926 
708 0.0156 0.0156 0 -0.000683131 -0.000683131 4.69382e-05 6.83131 342.927 441.463 
740 0.016 0.016 0 -0.000769275 -0.000769275 4.82649e-05 7.69275 1050.65 1438.65 
772 0.0192 0.0192 0 -0.000840721 -0.000840721 5.27519e-05 8.40721 747.316 1009.37 
804 0.0246 0.0246 0 -0.00116411 -0.00116411 -9.20053e-08 11.6411 755.532 1037.37 
836 0.0226 0.0226 0 -0.00103187 -0.00103187 -1.22437e-05 10.3187 465.625 1019.28 
868 0.017 0.017 0 -0.000797187 -0.000797187 -7.8328e-05 7.97187 724.677 965.788 
900 0.0162 0.0162 0 -0.000758362 -0.000758362 4.31131e-05 7.58362 495.289 762.319 
932 0.0118 0.0118 0 -0.000490378 -0.000490378 2.18869e-05 4.90378 98.6152 224.51 
964 0.0018 0.0018 0 -1.04063e-05 -1.04063e-05 -3.40342e-05 7.14252 841.424 1341.44 
996 0.0716 0.0716 0 0.000840791 0.000840791 9.16875e-05 34.4479 4296.3 5823.94 
1028 0.0938 0.0938 0 0.000758606 0.000758606 -2.04283e-05 46.0826 5317.77 7076.02 
1060 0.0966 0.0966 0 0.000823862 0.000823862 4.81785e-05 47.5368 4819.49 6468.72 
1092 0.0948 0.0948 0 0.00103382 0.00103382 5.72708e-05 47.6811 5637.95 7555.04 
1124 0.0948 0.0948 0 0.000801222 0.000801222 -4.18838e-05 45.4474 5821.7 7864.97 
1156 0.0968 0.0968 0 0.000947872 0.000947872 1.21144e-05 46.2335 5702.61 7182.5 
1188 0.101 0.101 0 0.00101265 0.00101265 5.94196e-05 47.6653 6671.11 9222.16 
1220 0.0864 0.0864 0 0.00106128 0.00106128 -3.92377e-05 41.4307 6253.81 8024.31 
1252 0.0756 0.0756 0 0.00142169 0.00142169 0.000111626 37.2221 7845.39 10105.9 
5 0.0184 0.0184 0 0.000726284 0.000726284 3.12183e-07 90.2337 20017.2 25782 
37 0.7686 0.7686 0 0.0384287 0.0384287 0.000434512 384.287 50681.4 68964.4 
69 0.8562 0.8562 0 0.0426304 0.0426304 7.52733e-05 426.304 52600.8 70990.2 
101 0.8674 0.8674 0 0.0431183 0.0431183 0.000753726 431.183 49178.9 66869 
133 0.9196 0.9196 0 0.0448275 0.0448275 0.000144566 448.275 48683.8 67640.2 
165 0.882 0.882 0 0.0437781 0.0437781 9.83598e-05 437.781 46104.3 64284.1 
197 0.9008 0.9008 0 0.044274 0.044274 0.000355269 442.74 51593.2 71313.3 
229 0.869 0.869 0 0.0427053 0.0427053 -0.000215726 427.053 46207.9 65411.3 
261 0.8272 0.8272 0 0.0409955 0.0409955 0.000469105 409.955 49458.6 68866 
293 0.8296 0.8296 0 0.0412581 0.0412581 0.000632467 412.581 54867.3 71960.2 
325 0.0222 0.0222 0 0.00107756 0.00107756 -3.98952e-05 111.732 20965.8 26606.7 
357 0.0878 0.0878 0 0.00139198 0.00139198 0.00025498 43.5574 9004.97 11449.9 
389 0.0934 0.0934 0 0.00117101 0.00117101 0.00012758 45.6138 7408.22 9898.11 
421 0.093 0.093 0 0.00116912 0.00116912 0.00011986 45.1528 7420.49 9540.23 
453 0.1004 0.1004 0 0.00103257 0.00103257 -2.21668e-05 47.4313 5694.96 7605.54 
485 0.0926 0.0926 0 0.0007102 0.0007102 0.000154468 44.6018 5335.39 7507.77 
517 0.0972 0.0972 0 0.000786474 0.000786474 -0.00019687 46.1218 4371.2 6118.89 
549 0.0884 0.0884 0 0.000957126 0.000957126 6.56145e-05 41.5081 4833.49 6975.65 
581 0.0844 0.0844 0 0.000644556 0.000644556 -4.96671e-05 41.1519 4168.05 5518.06 
613 0.0768 0.0768 0 0.000804684 0.000804684 -5.60466e-05 36.7956 4408.05 5897.62 
645 0.0016 0.0016 0 -2.49701e-05 -2.49701e-05 1.22098e-05 5.55645 709.185 54.9269 
677 0.0092 0.0092 0 -0.000363863 -0.000363863 -2.28165e-05 3.63863 113.309 210.674 
709 0.0166 0.0166 0 -0.000857278 -0.000857278 4.97376e-05 8.57278 318.029 506.43 
741 0.019 0.019 0 -0.000905248 -0.000905248 -3.48168e-05 9.05248 544.399 910.41 
773 0.0248 0.0248 0 -0.00111333 -0.00111333 1.27883e-05 11.1333 696.737 938.382 
805 0.023 0.023 0 -0.00106451 -0.00106451 1.71992e-05 10.6451 839.833 1389.59 
837 0.0188 0.0188 0 -0.000898895 -0.000898895 -3.49586e-05 8.98895 593.519 687.12 
869 0.0196 0.0196 0 -0.000880605 -0.000880605 -1.84009e-05 8.80605 202.247 623.307 
901 0.0124 0.0124 0 -0.000610568 -0.000610568 -8.26371e-06 6.10568 339.33 598.982 
933 0.0084 0.0084 0 -0.00039621 -0.00039621 -2.61137e-05 3.9621 571.942 583.203 
965 0.0028 0.0028 0 -6.16635e-06 -6.16635e-06 -1.73715e-05 11.7893 1480.33 1829.54 
997 0.0844 0.0844 0 0.00102193 0.00102193 -1.17263e-05 40.9097 5670.28 6925.04 
1029 0.0962 0.0962 0 0.000861674 0.000861674 -0.000117772 46.9113 4361.23 5857.32 
1061 0.093 0.093 0 0.000798944 0.000798944 -6.64779e-05 44.041 5292.52 6618.04 
1093 0.0886 0.0886 0 0.000789215 0.000789215 -3.18486e-05 42.787 4257.68 5935.89 
1125 0.1026 0.1026 0 0.000992099 0.000992099 0.000124559 48.9683 6004.56 8290.81 
1157 0.0966 0.0966 0 0.000820158 0.000820158 -0.000121615 47.3656 6164.93 7609.81 
1189 0.0896 0.0896 0 0.000916629 0.000916629 6.8265e-05 44.1686 6641.67 8890.74 
1221 0.0938 0.0938 0 0.00129711 0.00129711 0.000124188 47.7848 7834.01 9794.77 
1253 0.0698 0.0698 0 0.00137324 0.00137324 -0.000186621 32.4144 6694.06 8702.62 
6 0.0186 0.0186 0 0.000788337 0.000788337 -2.52851e-05 89.7718 17054.9 24144.9 
38 0.8194 0.8194 0 0.0410323 0.0410323 -0.000162192 410.323 57016.7 75614.9 
70 0.8326 0.8326 0 0.0414071 0.0414071 7.69972e-05 414.071 49818.3 69684.2 
102 0.8616 0.8616 0 0.042805 0.042805 -0.00108967 428.05 49124.2 67578.6 
134 0.8802 0.8802 0 0.0427665 0.0427665 -6.19935e-05 427.665 46357.2 63241.9 
166 0.8782 0.8782 0 0.0426848 0.0426848 0.000379301 426.848 46669.4 62030.3 
198 0.9074 0.9074 0 0.044576 0.044576 0.00021625 445.76 50641.6 68852.1 
230 0.8662 0.8662 0 0.0423312 0.0423312 0.000269423 423.312 49352.8 67148.9 
262 0.8518 0.8518 0 0.0423427 0.0423427 0.000247301 423.427 52985.9 72685.2 
294 0.8422 0.8422 0 0.0421385 0.0421385 -1.91546e-05 421.385 56642.2 76865.7 
326 0.0218 0.0218 0 0.000901049 0.000901049 -0.000108087 103.212 14599.2 21910.6 
358 0.092 0.092 0 0.0016227 0.0016227 -0.000132153 45.0445 9399.98 12240.1 
390 0.0978 0.0978 0 0.00136432 0.00136432 -0.000110375 47.8501 8112.62 10504.5 
422 0.0878 0.0878 0 0.000967475 0.000967475 -0.000250821 42.8809 5882.23 8072.42 
454 0.1006 0.1006 0 0.000991855 0.000991855 -5.77498e-05 49.4772 5639.92 7734.55 
486 0.1014 0.1014 0 0.000966552 0.000966552 1.06983e-05 48.7781 6137.22 8014.11 
518 0.1018 0.1018 0 0.000899066 0.000899066 3.73221e-05 48.7687 5423.42 7173.46 
550 0.0834 0.0834 0 0.000836929 0.000836929 -0.00010588 41.2089 4797.28 6487.85 
582 0.0794 0.0794 0 0.000673908 0.000673908 -0.000103787 38.2077 4200.47 5462.32 
614 0.0758 0.0758 0 0.000745844 0.000745844 -0.0001289 36.6461 4010.4 4615.7 
646 0.001 0.001 0 -2.82054e-05 -2.82054e-05 -1.36709e-05 4.32951 273.161 2.70015 
678 0.0118 0.0118 0 -0.000561969 -0.000561969 2.13926e-05 5.61969 278.864 446.455 
710 0.017 0.017 0 -0.000790669 -0.000790669 -3.01043e-05 7.90669 332.016 586.399 
742 0.0214 0.0214 0 -0.00104094 -0.00104094 -5.74376e-05 10.4094 466.842 526.815 
774 0.0224 0.0224 0 -0.00109541 -0.00109541 -1.15913e-06 10.9541 751.472 1120.99 
806 0.0256 0.0256 0 -0.00123223 -0.00123223 -3.44402e-05 12.3223 581.5 921.507 
838 0.0184 0.0184 0 -0.000878413 -0.000878413 8.0935e-05 8.78413 67.9244 109.019 
870 0.0194 0.0194 0 -0.000884313 -0.000884313 -4.22616e-05 8.84313 289.556 427.688 
902 0.0138 0.0138 0 -0.000661048 -0.000661048 4.941e-05 6.61048 587.558 845.157 
934 0.0102 0.0102 0 -0.000425464 -0.000425464 -3.32009e-05 4.25464 92.3382 189.109 
966 0.0034 0.0034 0 3.20059e-06 3.20059e-06 -9.94626e-06 15.3722 1431.42 3134.51 
998 0.0786 0.0786 0 0.00100981 0.00100981 -5.36165e-05 37.374 4516.45 5743.48 
1030 0.0914 0.0914 0 0.000784318 0.000784318 -0.000101945 43.141 4013.99 5531.99 
1062 0.0966 0.0966 0 0.000719179 0.000719179 9.08632e-06 46.4214 5806.92 7608.45 
1094 0.1014 0.1014 0 0.000853663 0.000853663 -0.000111286 48.3227 6065.48 7935.71 
1126 0.0982 0.0982 0 0.00104269 0.00104269 3.85475e-05 46.9131 5868.03 7845.89 
1158 0.0962 0.0962 0 0.000982509 0.000982509 0.000114682 46.6316 6334.35 8497.13 
1190 0.0944 0.0944 0 0.000908361 0.000908361 9.48574e-05 47.4769 5502.78 7407.73 
1222 0.0866 0.0866 0 0.00125827 0.00125827 -0.000131032 44.3685 6951.13 9015.13 
1254 0.0708 0.0708 0 0.00116568 0.00116568 -8.19467e-05 34.6253 6433.45 7726.1 
7 0.018 0.018 0 0.000740426 0.000740426 5.73589e-06 82.9787 12232.4 15679 
39 0.7988 0.7988 0 0.0397058 0.0397058 -0.000224426 397.058 51816.5 70860.4 
71 0.8602 0.8602 0 0.0429944 0.0429944 3.47019e-06 429.944 53656.2 71497.2 
103 0.8922 0.8922 0 0.0433669 0.0433669 -3.84363e-05 433.669 47431.8 64504.9 
135 0.9412 0.9412 0 0.0460119 0.0460119 0.000132103 460.119 50981.8 69800.5 
167 0.8724 0.8724 0 0.0426649 0.0426649 -0.000173687 426.649 45535.3 62295.4 
199 0.9014 0.9014 0 0.0440808 0.0440808 -0.000439942 440.808 50175.6 67641.9 
231 0.8974 0.8974 0 0.0442639 0.0442639 0.000269949 442.639 52377 69417.8 
263 0.8602 0.8602 0 0.0418949 0.0418949 0.000768136 418.949 50734.8 67652.4 
295 0.7916 0.7916 0 0.0401564 0.0401564 -0.000467823 401.564 52577.5 71611.7 
327 0.018 0.018 0 0.000772569 0.000772569 -5.75244e-05 89.8089 19039.1 27326 
359 0.0946 0.0946 0 0.0015883 0.0015883 -0.000208042 46.7995 9234.38 11175.9 
391 0.0956 0.0956 0 0.00105184 0.00105184 7.15363e-05 46.0807 5937.81 8040.81 
423 0.0956 0.0956 0 0.00118024 0.00118024 9.54447e-05 47.945 6715.73 8347.11 
455 0.0908 0.0908 0 0.000961694 0.000961694 -0.000194467 43.9479 5834.42 7547.71 
487 0.1074 0.1074 0 0.00110551 0.00110551 -0.000147251 50.1197 4986.76 6509.97 
519 0.0966 0.0966 0 0.000960182 0.000960182 -8.80193e-05 45.8746 5928.3 8177.5 
551 0.0894 0.0894 0 0.000825351 0.000825351 5.77851e-05 41.8255 4692.91 5529.43 
583 0.0804 0.0804 0 0.000777925 0.000777925 3.29905e-05 37.888 4625.57 5994.51 
615 0.0722 0.0722 0 0.00085099 0.00085099 3.67923e-05 34.7276 4622.33 5995.7 
647 0.0012 0.0012 0 -3.71295e-05 -3.71295e-05 5.59234e-07 4.69647 613.856 586.371 
679 0.013 0.013 0 -0.000592852 -0.000592852 -4.16306e-06 5.92852 318.67 627.451 
711 0.0158 0.0158 0 -0.000671293 -0.000671293 -3.16959e-05 6.71293 581.301 844.583 
743 0.0192 0.0192 0 -0.000905468 -0.000905468 5.61294e-05 9.05468 641.548 760.026 
775 0.0184 0.0184 0 -0.000850441 -0.000850441 3.2023e-05 8.50441 329.153 334.557 
807 0.0232 0.0232 0 -0.00111945 -0.00111945 -4.44584e-05 11.1945 459.8 898.512 
839 0.0234 0.0234 0 -0.00109377 -0.00109377 -3.76366e-06 10.9377 1036.72 1147.73 
871 0.0174 0.0174 0 -0.00076619 -0.00076619 8.53407e-05 7.6619 296.461 447.96 
903 0.0172 0.0172 0 -0.0008049 -0.0008049 -6.28198e-05 8.049 68.7142 217.217 
935 0.0102 0.0102 0 -0.000427004 -0.000427004 3.4367e-05 4.27004 107.757 183.915 
967 0.0038 0.0038 0 1.40859e-06 1.40859e-06 6.98878e-06 17.5939 392.152 679.63 
999 0.077 0.077 0 0.000791277 0.000791277 6.54895e-05 35.7286 3831.87 5448.12 
1031 0.0876 0.0876 0 0.00078856 0.00078856 0.00015653 41.0432 4487.8 6302.46 
1063 0.0818 0.0818 0 0.000801559 0.000801559 -2.84632e-05 39.368 4685.64 6399.96 
1095 0.0972 0.0972 0 0.000891556 0.000891556 1.35637e-05 46.3647 4643.85 6836.58 
1127 0.1054 0.1054 0 0.00115413 0.00115413 8.11977e-05 50.8609 6734.81 9093.99 
1159 0.092 0.092 0 0.000868834 0.000868834 -0.000159379 44.3467 6627.08 8077.97 
1191 0.092 0.092 0 0.00123092 0.00123092 -1.43853e-05 45.3854 6982.43 9240.83 
1223 0.0836 0.0836 0 0.00130108 0.00130108 -2.64094e-05 39.5784 5465.97 8362.58 
1255 0.0696 0.0696 0 0.00143093 0.00143093 -3.41809e-05 34.8982 7800.96 9469.14 
8 0.025 0.025 0 0.00121725 0.00121725 1.17705e-05 118.791 19530 25535.2 
40 0.822 0.822 0 0.0409803 0.0409803 0.000386188 409.803 53026.7 74064.3 
72 0.8338 0.8338 0 0.0415628 0.0415628 0.000124143 415.628 49627.8 68693.4 
104 0.913 0.913 0 0.0447567 0.0447567 0.000356856 447.567 51764.1 69641.2 
136 0.8984 0.8984 0 0.0437104 0.0437104 -0.000465326 437.104 47913 66544 
168 0.8786 0.8786 0 0.0428792 0.0428792 0.000228246 428.792 46156.1 64493.4 
200 0.8856 0.8856 0 0.0435061 0.0435061 -0.000498489 435.061 47625 64798.9 
232 0.9078 0.9078 0 0.0451006 0.0451006 -0.00060322 451.006 51930 71690.4 
264 0.8972 0.8972 0 0.0444524 0.0444524 7.13724e-05 444.524 54216.5 74164.4 
296 0.742 0.742 0 0.0375212 0.0375212 -0.000618891 375.212 48723.4 66158 
328 0.0162 0.0162 0 0.000663025 0.000663025 5.15913e-05 80.6456 15981.3 23438.1 
360 0.0778 0.0778 0 0.00136343 0.00136343 4.71591e-05 38.2696 6709.14 8538.7 
392 0.0872 0.0872 0 0.00114546 0.00114546 3.39742e-05 42.4628 5541.77 7302.66 
424 0.1038 0.1038 0 0.00116415 0.00116415 3.95549e-05 50.4623 7104.7 9662.1 
456 0.087 0.087 0 0.000682486 0.000682486 0.00014963 42.2974 4909.77 6326.7 
488 0.0988 0.0988 0 0.000719103 0.000719103 -0.000288031 48.562 4628.34 6835.75 
520 0.0948 0.0948 0 0.000703235 0.000703235 2.02165e-05 44.923 3471.12 5556.38 
552 0.0946 0.0946 0 0.000765514 0.000765514 7.75894e-05 46.1419 4295.57 5510.42 
584 0.0906 0.0906 0 0.000951451 0.000951451 0.000219868 44.2942 5264.47 7000.68 
616 0.0754 0.0754 0 0.000912186 0.000912186 5.31632e-05 36.2111 4101.15 5538.55 
648 0.0004 0.0004 0 -7.51936e-06 -7.51936e-06 4.78464e-06 1.05473 -61.8188 494.691 
680 0.012 0.012 0 -0.000488316 -0.000488316 6.51903e-06 4.88316 142.104 136.911 
712 0.0156 0.0156 0 -0.000756927 -0.000756927 -3.51136e-05 7.56927 268.284 751.759 
744 0.0218 0.0218 0 -0.00108033 -0.00108033 -8.46568e-06 10.8033 360.232 811.609 
776 0.0272 0.0272 0 -0.00128006 -0.00128006 -7.34055e-05 12.8006 680.036 945.092 
808 0.0242 0.0242 0 -0.00113089 -0.00113089 9.27766e-06 11.3089 651.107 1081.5 
840 0.0232 0.0232 0 -0.00105752 -0.00105752 -2.23252e-05 10.5752 971.93 1265.29 
872 0.021 0.021 0 -0.00100408 -0.00100408 0.000116389 10.0408 760.464 1029.12 
904 0.0132 0.0132 0 -0.000589745 -0.000589745 -3.86886e-05 5.89745 186.307 302.746 
936 0.0096 0.0096 0 -0.000420788 -0.000420788 -4.21237e-05 4.20788 299.354 462.183 
968 0.003 0.003 0 4.1777e-05 4.1777e-05 5.89666e-06 13.2809 2573.57 2041.06 
1000 0.0824 0.0824 0 0.000956604 0.000956604 6.65736e-05 38.1481 4420.29 5786.68 
1032 0.0912 0.0912 0 0.000925606 0.000925606 5.26669e-05 43.7189 4160.82 5860.31 
1064 0.0938 0.0938 0 0.000683218 0.000683218 8.35522e-05 45.6757 5193.59 6674.32 
1096 0.0944 0.0944 0 0.000682873 0.000682873 -2.87883e-05 46.7304 5657.74 7395.84 
1128 0.0994 0.0994 0 0.000962703 0.000962703 -0.000286643 47.2199 5805.85 7662.45 
1160 0.088 0.088 0 0.00104311 0.00104311 -3.60763e-05 43.2551 5658.57 7761.14 
1192 0.0938 0.0938 0 0.00104741 0.00104741 -1.52563e-05 47.2777 6354.9 8014.01 
1224 0.1006 0.1006 0 0.00134071 0.00134071 -6.96449e-05 49.4814 8117.98 10029 
1256 0.063 0.063 0 0.00112802 0.00112802 7.32489e-05 30.9072 5466.95 7604.48 
9 0.028 0.028 0 0.00129745 0.00129745 -4.44044e-05 131.123 22217 30520.8 
41 0.8168 0.8168 0 0.0408857 0.0408857 -0.000571649 408.857 51649.1 71382.7 
73 0.874 0.874 0 0.0432598 0.0432598 -3.10692e-05 432.598 51825.1 69879.1 
105 0.8634 0.8634 0 0.0424685 0.0424685 0.000137899 424.685 47322.6 66140.3 
137 0.8672 0.8672 0 0.0424747 0.0424747 -0.00031228 424.747 47067.5 62191.1 
169 0.8788 0.8788 0 0.0427684 0.0427684 0.000129386 427.684 45841.5 63392.1 
201 0.8816 0.8816 0 0.0429922 0.0429922 -0.00017694 429.922 46387.2 63782.3 
233 0.8642 0.8642 0 0.0421578 0.0421578 2.37944e-05 421.578 48727.7 64652.6 
265 0.8698 0.8698 0 0.0437229 0.0437229 0.000642211 437.229 51458 69735.5 
297 0.7226 0.7226 0 0.0362904 0.0362904 -0.000296699 362.904 50435.6 67224.7 
329 0.015 0.015 0 0.000545764 0.000545764 -5.42061e-05 74.0693 18583.6 23755 
361 0.0848 0.0848 0 0.00154494 0.00154494 -5.18067e-05 42.8638 8902.4 11348.1 
393 0.0942 0.0942 0 0.00103691 0.00103691 4.56022e-05 45.2582 6685.96 8804.15 
425 0.0994 0.0994 0 0.000995014 0.000995014 8.17861e-05 49.0881 6018.12 8344.1 
457 0.1046 0.1046 0 0.000928154 0.000928154 9.28088e-05 52.2791 6770.87 8915.09 
489 0.0998 0.0998 0 0.00111588 0.00111588 5.13199e-05 48.1493 6423.38 8271 
521 0.095 0.095 0 0.000719456 0.000719456 0.000120646 42.5324 4952.4 6290.44 
553 0.087 0.087 0 0.000759268 0.000759268 9.00266e-05 42.2648 4727.47 6407.3 
585 0.087 0.087 0 0.000803348 0.000803348 0.000191058 41.0956 4686.51 6437.05 
617 0.0752 0.0752 0 0.000750237 0.000750237 1.28478e-06 34.1169 4497.88 5499.75 
649 0.001 0.001 0 -3.53724e-05 -3.53724e-05 -7.45908e-06 4.10858 834.405 2250.67 
681 0.01 0.01 0 -0.000467394 -0.000467394 4.38852e-05 4.67394 595.323 621.892 
713 0.017 0.017 0 -0.000764196 -0.000764196 6.65218e-05 7.64196 870.869 1167.15 
745 0.02 0.02 0 -0.000899419 -0.000899419 -6.77358e-05 8.99419 561.622 862.216 
777 0.0236 0.0236 0 -0.00107706 -0.00107706 7.93163e-05 10.7706 968.329 1330.37 
809 0.0226 0.0226 0 -0.000995155 -0.000995155 -3.88653e-05 9.95155 810.507 1181.96 
841 0.0188 0.0188 0 -0.000817275 -0.000817275 -3.18323e-05 8.17275 449.24 761.409 
873 0.0174 0.0174 0 -0.000772621 -0.000772621 4.59566e-05 7.72621 412.782 646.639 
905 0.0158 0.0158 0 -0.00063435 -0.00063435 -5.6267e-05 6.3435 395.922 725.395 
937 0.0084 0.0084 0 -0.000323878 -0.000323878 2.48962e-05 3.23878 126.929 481.372 
969 0.006 0.006 0 8.8558e-05 8.8558e-05 -3.69333e-06 29.2286 1409.13 2999.16 
1001 0.0738 0.0738 0 0.000606081 0.000606081 0.000200247 35.1536 2552.24 3470.04 
1033 0.0958 0.0958 0 0.000817686 0.000817686 -1.01756e-05 45.3959 5234.61 6794.78 
1065 0.0922 0.0922 0 0.000777558 0.000777558 -0.000133519 43.5645 4196.83 5360.25 
1097 0.091 0.091 0 0.000949864 0.000949864 0.000190815 43.1769 5777.22 7337.46 
1129 0.1028 0.1028 0 0.000818021 0.000818021 4.86386e-05 49.332 5807.29 8248.32 
1161 0.0948 0.0948 0 0.00109373 0.00109373 4.39945e-05 44.7169 6140.92 7822.74 
1193 0.0792 0.0792 0 0.000913686 0.000913686 -1.91696e-05 39.5129 5564.41 7141.39 
1225 0.0844 0.0844 0 0.00100922 0.00100922 -8.61002e-05 40.3491 6101.72 7948.29 
1257 0.0616 0.0616 0 0.00122765 0.00122765 -0.000173879 30.1822 6349.4 7759.31 
10 0.0298 0.0298 0 0.00155056 0.00155056 3.18981e-06 156.825 29416.6 38201.3 
42 0.8052 0.8052 0 0.0402084 0.0402084 -0.000213968 402.084 57390.7 76586.6 
74 0.8472 0.8472 0 0.0418779 0.0418779 -0.000125229 418.779 49278.1 68422.5 
106 0.8628 0.8628 0 0.0423872 0.0423872 -0.000169596 423.872 49292.8 65237.8 
138 0.8854 0.8854 0 0.043256 0.043256 -0.000306857 432.56 47719.8 63937.5 
170 0.9134 0.9134 0 0.0451873 0.0451873 0.000354914 451.873 47874 65553.3 
202 0.9102 0.9102 0 0.0440467 0.0440467 -0.000253644 440.467 50741.8 68984 
234 0.9038 0.9038 0 0.044705 0.044705 0.000214837 447.05 52442.7 70453.5 
266 0.8126 0.8126 0 0.0407953 0.0407953 0.000187454 407.953 48872.2 69024.5 
298 0.7232 0.7232 0 0.0362112 0.0362112 3.48599e-05 362.112 52311.9 71108.6 
330 0.0126 0.0126 0 0.00047375 0.00047375 1.82153e-05 60.8083 14843.3 19357.8 
362 0.0834 0.0834 0 0.00167895 0.00167895 4.09954e-05 40.6049 8203.77 10079.9 
394 0.087 0.087 0 0.00124642 0.00124642 -6.886e-05 43.2587 6894.14 8912.6 
426 0.0934 0.0934 0 0.00109381 0.00109381 0.000101826 45.5936 5432.51 6954.71 
458 0.1014 0.1014 0 0.00103055 0.00103055 -4.19055e-05 49.6319 6332.58 8523.02 