ITEM: TIMESTEP
25000
ITEM: NUMBER OF SURFS
1272
ITEM: BOX BOUNDS oo rr pp
0 0.3
0 0.3
-0.5 0.5
ITEM: SURFS id f_4[1] f_4[2] f_4[3] f_4[4] f_4[5] f_4[6] f_4[7] f_4[8] f_4[9] 
1 0.0024 0.0024 0 1.26223e-05 1.26223e-05 3.71587e-06 5.77546 1426.11 2115.5 
21 0.1354 0.1354 0 0.00385691 0.00385691 -9.7397e-05 38.5691 11274.7 14947 
41 0.15 0.15 0 0.00421409 0.00421409 -6.25678e-05 42.1409 7947.34 11771.7 
61 0.1526 0.1526 0 0.00415239 0.00415239 0.000148658 41.5239 9302.88 12457.5 
81 0.1506 0.1506 0 0.00399948 0.00399948 0.000129115 39.9948 8108.27 11147.7 
101 0.1512 0.1512 0 0.00402416 0.00402416 6.31571e-05 40.2416 8056.22 10627.6 
121 0.1668 0.1668 0 0.00425931 0.00425931 6.71555e-05 42.5931 8285.73 11224.2 
141 0.1768 0.1768 0 0.004644 0.004644 6.93074e-05 46.44 7534.36 10450.5 
161 0.1628 0.1628 0 0.00435313 0.00435313 4.10883e-06 43.5313 7584.78 11180 
181 0.178 0.178 0 0.0047116 0.0047116 -8.74432e-05 47.116 7950.11 10979.8 
201 0.1642 0.1642 0 0.00431076 0.00431076 -0.000134411 43.1076 7590.53 10461.5 
221 0.1654 0.1654 0 0.00435169 0.00435169 -0.000132697 43.5169 6699.14 9664.41 
241 0.1626 0.1626 0 0.00430946 0.00430946 4.75149e-05 43.0946 7764.8 11312 
261 0.157 0.157 0 0.0042125 0.0042125 5.60203e-05 42.125 7200.64 9918.96 
281 0.1566 0.1566 0 0.00429064 0.00429064 -2.84579e-06 42.9064 8049.86 10988.9 
301 0.1388 0.1388 0 0.00390754 0.00390754 0.000148255 39.0754 9370.56 12259.8 
321 0.0088 0.0088 0 0.000274474 0.000274474 -9.73976e-06 27.4074 7641.01 10170 
341 0.0172 0.0172 0 0.000211726 0.000211726 -1.2691e-05 4.72956 1247.16 1775.24 
361 0.0152 0.0152 0 0.000164667 0.000164667 -3.00857e-05 3.62529 1168.8 1508.4 
381 0.02 0.02 0 0.000267534 0.000267534 -3.70287e-05 5.38207 1885.85 2449.04 
401 0.023 0.023 0 0.000286423 0.000286423 3.49612e-05 5.89017 2033.09 2757.78 
421 0.0168 0.0168 0 0.000185828 0.000185828 -4.18894e-05 4.67569 1398.25 2023.29 
441 0.0198 0.0198 0 0.000216851 0.000216851 -2.63976e-05 4.87483 1309.76 1827.98 
461 0.0188 0.0188 0 0.000184858 0.000184858 5.81052e-05 4.84807 1615.07 2119.56 
481 0.0178 0.0178 0 0.000230566 0.000230566 6.51562e-06 4.41335 1356.09 1863.59 
501 0.0194 0.0194 0 0.000241555 0.000241555 -1.24447e-05 5.06144 1312.09 1651.49 
521 0.017 0.017 0 0.000227944 0.000227944 9.18802e-06 4.5031 1413.41 1764.51 
541 0.0138 0.0138 0 0.000189103 0.000189103 -1.05001e-06 3.81637 1324.36 1516.5 
561 0.0166 0.0166 0 0.000211859 0.000211859 -1.40527e-05 3.98405 1411.6 1682 
581 0.017 0.017 0 0.00017569 0.00017569 -2.40977e-05 4.4646 1122.23 1524.37 
601 0.012 0.012 0 0.000124888 0.000124888 2.39252e-05 3.02731 668.064 927.346 
621 0.015 0.015 0 0.000247014 0.000247014 2.87907e-06 4.05934 1363.89 1678.36 
641 0.0004 0.0004 0 -2.90445e-06 -2.90445e-06 1.46976e-06 0.918572 139.356 118.934 
661 0.0008 0.0008 0 -7.43575e-06 -7.43575e-06 2.82952e-06 0.0743575 16.7785 44.0267 
681 0.0012 0.0012 0 -2.36527e-05 -2.36527e-05 4.07214e-06 0.236527 -13.6728 -1.23994 
701 0.0004 0.0004 0 -1.05039e-05 -1.05039e-05 4.65252e-06 0.105039 40.4422 57.9948 
721 0.0006 0.0006 0 -1.14032e-05 -1.14032e-05 -7.58463e-06 0.114032 52.8661 163.498 
741 0 0 0 0 0 0 0 0 0 
761 0.001 0.001 0 -2.32128e-05 -2.32128e-05 5.2157e-06 0.232128 -0.368148 8.89382 
781 0.0004 0.0004 0 -9.5174e-06 -9.5174e-06 3.74402e-06 0.095174 1.833 21.4892 
801 0.0008 0.0008 0 -2.14448e-05 -2.14448e-05 -2.26009e-06 0.214448 1.31212 25.7816 
821 0.0008 0.0008 0 -1.39753e-05 -1.39753e-05 4.29882e-06 0.139753 11.5499 48.6238 
841 0.0008 0.0008 0 -2.3213e-05 -2.3213e-05 3.15894e-06 0.23213 50.7786 74.3791 
861 0.0004 0.0004 0 -9.66124e-06 -9.66124e-06 -2.78038e-06 0.0966124 -1.38083 3.59948 
881 0.0004 0.0004 0 -5.02908e-06 -5.02908e-06 4.7514e-06 0.0502908 -5.86623 1.95503 
901 0.0002 0.0002 0 -2.51422e-06 -2.51422e-06 1.68307e-06 0.0251422 14.4922 26.8594 
921 0.0004 0.0004 0 -8.21718e-06 -8.21718e-06 -1.9152e-06 0.0821718 -5.30895 11.6142 
941 0.0004 0.0004 0 -1.3139e-05 -1.3139e-05 -1.19439e-06 0.13139 8.01656 6.02781 
961 0 0 0 0 0 0 0 0 0 
981 0.0152 0.0152 0 0.000222434 0.000222434 -1.19475e-05 3.95954 1370.34 1566.87 
1001 0.0148 0.0148 0 0.000171213 0.000171213 -3.89987e-05 3.95552 1223.02 1435.72 
1021 0.0146 0.0146 0 0.000135694 0.000135694 -8.6553e-06 4.11534 918.962 1299.83 
1041 0.0162 0.0162 0 0.000131398 0.000131398 -3.53975e-05 4.397 1276.55 1741.75 
1061 0.017 0.017 0 0.000147182 0.000147182 5.17539e-05 4.26403 1101.58 1527.99 
1081 0.014 0.014 0 0.000153755 0.000153755 1.99442e-07 3.64173 1047.1 1206.26 
1101 0.015 0.015 0 0.000179865 0.000179865 -1.06681e-05 4.26012 1297.69 1621.81 
1121 0.0178 0.0178 0 0.000190889 0.000190889 1.35235e-06 4.7529 1436.9 1769.04 
1141 0.021 0.021 0 0.000205749 0.000205749 -2.90596e-05 5.39963 1383.4 1783.58 
1161 0.0226 0.0226 0 0.00025235 0.00025235 -4.95324e-06 5.87393 1744.38 2355.2 
1181 0.02 0.02 0 0.00022863 0.00022863 1.6584e-05 5.19502 2027.06 2558.93 
1201 0.0164 0.0164 0 0.000177788 0.000177788 3.24781e-05 4.10344 1502.34 1933.87 
1221 0.018 0.018 0 0.00018873 0.00018873 1.79696e-05 5.06871 1592.52 2054.74 
1241 0.0208 0.0208 0 0.000218265 0.000218265 -6.31542e-06 5.17521 1354.6 2128.1 
1261 0.0188 0.0188 0 0.000233984 0.000233984 -2.5347e-05 4.89983 1795.55 2765.25 
2 0.004 0.004 0 6.49555e-05 6.49555e-05 -6.84607e-06 10.8744 3797.27 5067.21 
22 0.1272 0.1272 0 0.00387161 0.00387161 2.15729e-05 38.7161 9044.6 12823.4 
42 0.145 0.145 0 0.00403612 0.00403612 1.66644e-05 40.3612 8944.48 12336.8 
62 0.1548 0.1548 0 0.00426196 0.00426196 6.90939e-05 42.6196 8214.27 10947.1 
82 0.172 0.172 0 0.00453107 0.00453107 7.47271e-05 45.3107 9077.87 13233.1 
102 0.166 0.166 0 0.00438421 0.00438421 -3.20666e-05 43.8421 8093.59 11856.2 
122 0.1782 0.1782 0 0.004666 0.004666 0.000224351 46.66 9060.71 12300.1 
142 0.1592 0.1592 0 0.00418463 0.00418463 4.93465e-05 41.8463 6492.24 9498.62 
162 0.1764 0.1764 0 0.00455357 0.00455357 -5.96642e-05 45.5357 7488.67 10983.1 
182 0.1656 0.1656 0 0.0043509 0.0043509 3.8239e-07 43.509 7777.31 10299.5 
202 0.1744 0.1744 0 0.00464514 0.00464514 -1.7253e-05 46.4514 8145.97 10910.3 
222 0.1852 0.1852 0 0.00489623 0.00489623 -9.19139e-06 48.9623 8776.28 12636.7 
242 0.1648 0.1648 0 0.00446836 0.00446836 -1.06191e-06 44.6836 7802.58 10797.6 
262 0.1544 0.1544 0 0.00410165 0.00410165 8.91411e-06 41.0165 7770.08 10892.9 
282 0.1566 0.1566 0 0.00422059 0.00422059 5.44224e-05 42.2059 7915.93 11475.3 
302 0.1308 0.1308 0 0.00379085 0.00379085 -2.71271e-05 37.9085 8684.08 12016.6 
322 0.0082 0.0082 0 0.000227647 0.000227647 -2.13175e-06 23.6749 5961.58 9576.1 
342 0.0182 0.0182 0 0.00015549 0.00015549 -2.9199e-05 4.67483 1503.23 2182.21 
362 0.0198 0.0198 0 0.000215265 0.000215265 -8.98669e-06 5.10354 1515.85 2042.93 
382 0.022 0.022 0 0.000285445 0.000285445 1.83974e-05 6.26832 2003.82 2751.68 
402 0.02 0.02 0 0.000241454 0.000241454 7.98421e-05 5.18932 1953.9 2540.96 
422 0.0212 0.0212 0 0.000203272 0.000203272 -1.01032e-05 5.52416 1896.62 2515.86 
442 0.0166 0.0166 0 0.000243483 0.000243483 1.24461e-05 4.30522 1534.61 1936.52 
462 0.021 0.021 0 0.000287063 0.000287063 4.59533e-06 5.64335 1826.52 2365.3 
482 0.018 0.018 0 0.000178169 0.000178169 -1.1135e-05 4.75611 1237.82 1898.81 
502 0.0206 0.0206 0 0.000191585 0.000191585 -3.65998e-05 5.68945 1397.45 2172.91 
522 0.0158 0.0158 0 0.000194296 0.000194296 2.03332e-06 4.24676 1283.1 1506.71 
542 0.0164 0.0164 0 0.000233165 0.000233165 -5.37898e-05 4.01341 1553.15 1948.7 
562 0.0134 0.0134 0 0.000183815 0.000183815 9.24167e-06 3.56191 1014.69 1193.64 
582 0.0144 0.0144 0 0.000193894 0.000193894 -2.20092e-06 4.03779 1275.71 1770.29 
602 0.0144 0.0144 0 0.000181808 0.000181808 9.06551e-06 3.48062 1015.42 1281.51 
622 0.016 0.016 0 0.000259156 0.000259156 -2.93383e-05 4.32868 1329.53 1780 
642 0.0004 0.0004 0 -1.92124e-06 -1.92124e-06 1.50895e-06 0.86733 -115.509 425.596 
662 0.0008 0.0008 0 -1.77322e-05 -1.77322e-05 -1.68086e-06 0.177322 36.3727 84.2328 
682 0.0006 0.0006 0 -9.5806e-06 -9.5806e-06 -4.13257e-06 0.095806 9.37153 22.0656 
702 0.0014 0.0014 0 -3.1978e-05 -3.1978e-05 -5.50969e-07 0.31978 81.7775 164.145 
722 0.0004 0.0004 0 -7.03839e-06 -7.03839e-06 -2.88435e-06 0.0703839 2.92474 9.2811 
742 0.001 0.001 0 -2.20255e-05 -2.20255e-05 -1.48127e-05 0.220255 77.28 191.07 
762 0.0004 0.0004 0 -8.21662e-06 -8.21662e-06 1.02828e-06 0.0821662 -10.1016 16.3771 
782 0.0006 0.0006 0 -1.49551e-05 -1.49551e-05 -5.63927e-06 0.149551 35.9501 50.8525 
802 0.0008 0.0008 0 -1.93789e-05 -1.93789e-05 -1.49422e-06 0.193789 -14.9052 -6.56044 
822 0.0004 0.0004 0 -1.02986e-05 -1.02986e-05 -3.82272e-06 0.102986 -2.1736 20.4265 
842 0.0002 0.0002 0 -1.92214e-06 -1.92214e-06 0 0.0192214 0 0 
862 0.0004 0.0004 0 -1.00837e-05 -1.00837e-05 4.33696e-06 0.100837 12.1027 28.9901 
882 0.0004 0.0004 0 -1.28015e-05 -1.28015e-05 1.59086e-06 0.128015 107.768 103.242 
902 0.0004 0.0004 0 -4.66387e-06 -4.66387e-06 8.70756e-07 0.0466387 3.38566 -6.27934 
922 0.0004 0.0004 0 -9.40895e-06 -9.40895e-06 -1.71367e-06 0.0940895 45.8796 45.885 
942 0.0002 0.0002 0 -7.08176e-06 -7.08176e-06 -2.32178e-06 0.0708176 -4.56673 68.8257 
962 0.0002 0.0002 0 -4.13783e-06 -4.13783e-06 0 0.627861 0 0 
982 0.0136 0.0136 0 0.000162066 0.000162066 2.26584e-05 3.49571 1082.83 1429.39 
1002 0.0158 0.0158 0 0.000247701 0.000247701 6.30522e-06 4.14843 1924.82 2218.55 
1022 0.015 0.015 0 0.000172211 0.000172211 -8.77324e-06 3.94691 973.606 1244.31 
1042 0.0152 0.0152 0 0.000204601 0.000204601 -2.13835e-05 4.25595 1168.91 1610.93 
1062 0.0172 0.0172 0 0.000205798 0.000205798 1.77442e-05 4.44111 1463.9 1903.92 
1082 0.02 0.02 0 0.000173015 0.000173015 4.47574e-05 5.21199 1480.64 2077.69 
1102 0.0188 0.0188 0 0.000240314 0.000240314 -2.07195e-05 4.61701 1338.29 1629.62 
1122 0.0202 0.0202 0 0.000226074 0.000226074 -5.05054e-06 5.13128 1945.71 2473.66 
1142 0.0222 0.0222 0 0.000170865 0.000170865 -8.75244e-06 6.15295 1540.39 2230.63 
1162 0.0186 0.0186 0 0.000190859 0.000190859 -3.54183e-05 4.398 1373.22 1903.41 
1182 0.021 0.021 0 0.000191433 0.000191433 5.38946e-06 5.2516 1385.55 1937.12 
1202 0.0196 0.0196 0 0.000226955 0.000226955 -9.8283e-06 4.75246 1555.58 2260.1 
1222 0.0188 0.0188 0 0.000190999 0.000190999 -2.08428e-05 4.44083 1443.69 1860.16 
1242 0.0244 0.0244 0 0.000240994 0.000240994 -1.45853e-05 6.78466 1951.46 2407.5 
1262 0.0172 0.0172 0 0.000180371 0.000180371 2.63179e-05 4.17814 1500.55 2070.48 
3 0.001 0.001 0 9.39713e-06 9.39713e-06 4.37797e-06 2.26715 760.362 1053.67 
23 0.1394 0.1394 0 0.00409986 0.00409986 -6.94083e-05 40.9986 10043.2 14134.6 
43 0.1582 0.1582 0 0.0043052 0.0043052 -2.04004e-05 43.052 8866.55 12138.6 
63 0.1604 0.1604 0 0.00438213 0.00438213 4.85311e-05 43.8213 8587.86 12070.1 
83 0.17 0.17 0 0.00445954 0.00445954 0.000160989 44.5954 8350.31 12024.7 
103 0.1594 0.1594 0 0.00430721 0.00430721 3.82318e-05 43.0721 7615.1 10679.8 
123 0.1636 0.1636 0 0.00428601 0.00428601 0.000100482 42.8601 7888.98 11199.5 
143 0.1794 0.1794 0 0.00476769 0.00476769 9.71339e-05 47.6769 8601.92 11832.6 
163 0.174 0.174 0 0.00454976 0.00454976 -9.30373e-05 45.4976 7261.67 10108 
183 0.159 0.159 0 0.00412026 0.00412026 -4.96542e-05 41.2026 6374.37 9072.3 
203 0.1816 0.1816 0 0.00487273 0.00487273 0.000127569 48.7273 8214.73 11359.5 
223 0.1702 0.1702 0 0.00447421 0.00447421 -1.68922e-05 44.7421 8524.71 11674.3 
243 0.1688 0.1688 0 0.00444745 0.00444745 -4.74313e-05 44.4745 7373.77 10655 
263 0.1586 0.1586 0 0.00424962 0.00424962 7.51923e-05 42.4962 8209.67 11998 
283 0.156 0.156 0 0.00421734 0.00421734 -0.000123938 42.1734 8574.9 12294.6 
303 0.143 0.143 0 0.00400994 0.00400994 -9.24345e-05 40.0994 9720.31 13735.5 
323 0.0072 0.0072 0 0.000225591 0.000225591 1.235e-05 23.1516 8747.86 9378.64 
343 0.018 0.018 0 0.000212657 0.000212657 -2.39574e-06 4.59811 1410.42 2067.24 
363 0.0192 0.0192 0 0.00020544 0.00020544 1.64431e-05 4.50015 916.59 1434.4 
383 0.0206 0.0206 0 0.000226415 0.000226415 5.0656e-05 5.60173 1652.19 2299.29 
403 0.0186 0.0186 0 0.000206834 0.000206834 -2.33097e-06 4.83059 1616 2122.89 
423 0.0176 0.0176 0 0.000194965 0.000194965 7.82706e-06 5.45943 1670.56 2334.01 
443 0.0168 0.0168 0 0.000209593 0.000209593 -1.08761e-05 4.19858 1200.32 1860.37 
463 0.0178 0.0178 0 0.000192993 0.000192993 -3.21486e-06 4.58001 1077.99 1712.9 
483 0.017 0.017 0 0.000212332 0.000212332 -1.27825e-06 4.60162 1608.45 2186.24 
503 0.0214 0.0214 0 0.000230142 0.000230142 4.03052e-05 5.54398 1686.96 2365.22 
523 0.0148 0.0148 0 0.000141329 0.000141329 4.7239e-05 4.15445 823.272 1089.93 
543 0.0178 0.0178 0 0.000225543 0.000225543 1.32118e-05 4.66908 1688.35 2379.49 
563 0.0162 0.0162 0 0.000163558 0.000163558 -3.08456e-05 4.14872 1185.68 1522.55 
583 0.0152 0.0152 0 0.000172648 0.000172648 4.68876e-05 4.02635 1220.69 1535.51 
603 0.0164 0.0164 0 0.000229873 0.000229873 3.64955e-05 4.52233 1698.46 2292.23 
623 0.0182 0.0182 0 0.000301468 0.000301468 -1.25405e-05 5.0381 2134.94 2499.76 
643 0.0002 0.0002 0 3.23997e-07 3.23997e-07 1.96425e-06 0.200575 116.688 294.572 
663 0 0 0 0 0 0 0 0 0 
683 0.0002 0.0002 0 -7.42023e-06 -7.42023e-06 0 0.0742023 1.80556e-14 1.80556e-14 
703 0.0006 0.0006 0 -8.21492e-06 -8.21492e-06 2.02788e-07 0.0821492 3.28897 -1.38944 
723 0.0002 0.0002 0 -2.6991e-06 -2.6991e-06 0 0.026991 1.80556e-15 1.80556e-15 
743 0.0008 0.0008 0 -1.28646e-05 -1.28646e-05 6.17595e-06 0.128646 -1.59557 -6.68433 
763 0.0004 0.0004 0 -5.34206e-06 -5.34206e-06 -2.64252e-07 0.0534206 17.3031 29.6877 
783 0.0008 0.0008 0 -1.60217e-05 -1.60217e-05 7.53769e-06 0.160217 5.34837 21.3969 
803 0.0006 0.0006 0 -1.10892e-05 -1.10892e-05 -3.63197e-06 0.110892 -2.46814 9.82382 
823 0.0016 0.0016 0 -3.25788e-05 -3.25788e-05 -1.91883e-06 0.325788 -31.2429 30.681 
843 0.0012 0.0012 0 -3.16284e-05 -3.16284e-05 -4.40296e-06 0.316284 17.1935 123.157 
863 0.0006 0.0006 0 -1.07462e-05 -1.07462e-05 2.73911e-06 0.107462 -14.1458 7.3659 
883 0.0008 0.0008 0 -2.30128e-05 -2.30128e-05 -2.58467e-06 0.230128 35.9819 43.0719 
903 0.0004 0.0004 0 -6.96129e-06 -6.96129e-06 5.56418e-06 0.0696129 11.0759 13.1079 
923 0.0006 0.0006 0 -5.56664e-06 -5.56664e-06 -5.76338e-06 0.0556664 61.4139 60.7431 
943 0.0004 0.0004 0 -1.38253e-05 -1.38253e-05 2.35822e-06 0.138253 -18.9335 -6.24295 
963 0.0006 0.0006 0 -1.11716e-06 -1.11716e-06 -2.47229e-06 1.72363 517.559 785.134 
983 0.0136 0.0136 0 0.000145942 0.000145942 -3.78707e-05 3.46157 705.3 920.057 
1003 0.0144 0.0144 0 0.000180707 0.000180707 3.39977e-06 3.99075 1169.17 1474.47 
1023 0.0182 0.0182 0 0.000221291 0.000221291 -9.90703e-06 4.66789 1306.35 1598.92 
1043 0.0178 0.0178 0 0.000166314 0.000166314 2.00307e-05 4.83986 1412.13 1732.86 
1063 0.0164 0.0164 0 0.00018787 0.00018787 2.03546e-05 4.79187 1358.43 1849.31 
1083 0.0156 0.0156 0 0.000219314 0.000219314 -1.24961e-05 3.75149 1349.11 1628.09 
1103 0.0166 0.0166 0 0.000181022 0.000181022 -1.89467e-05 4.43528 1269.38 1584.72 
1123 0.0182 0.0182 0 0.000212692 0.000212692 1.36817e-05 4.66748 1242.89 1912.79 
1143 0.0196 0.0196 0 0.000158916 0.000158916 5.10211e-05 5.62467 1630.34 2008.2 
1163 0.0178 0.0178 0 0.000197007 0.000197007 2.39876e-06 4.88209 1505.93 1960.98 
1183 0.0212 0.0212 0 0.000238252 0.000238252 9.18593e-06 5.38341 1433.28 2182.13 
1203 0.0168 0.0168 0 0.000144159 0.000144159 -1.75246e-05 4.45746 1295.33 1885.38 
1223 0.0224 0.0224 0 0.000266566 0.000266566 -4.19446e-05 5.81705 1869.47 2551.68 
1243 0.0162 0.0162 0 0.000191832 0.000191832 8.36193e-06 4.08687 1393.67 1882.31 
1263 0.0206 0.0206 0 0.000241332 0.000241332 -2.92343e-05 5.05761 1741.83 2642.24 
4 0.0038 0.0038 0 9.34093e-05 9.34093e-05 -1.74624e-05 11.9564 4047.41 5923.43 
24 0.1436 0.1436 0 0.00419784 0.00419784 -2.41924e-05 41.9784 10858 14699 
44 0.1522 0.1522 0 0.00416522 0.00416522 -0.000130456 41.6522 8487.01 11674.2 
64 0.158 0.158 0 0.00436274 0.00436274 -0.000124173 43.6274 8509.9 12495.9 
84 0.1614 0.1614 0 0.00431737 0.00431737 -2.17548e-05 43.1737 7816.13 10572.7 
104 0.1708 0.1708 0 0.00469085 0.00469085 -8.58669e-05 46.9085 8167.41 11217.1 
124 0.167 0.167 0 0.00440291 0.00440291 -6.24688e-05 44.0291 7501.65 10102.8 
144 0.1742 0.1742 0 0.00457403 0.00457403 -1.92129e-05 45.7403 8236.1 11535.8 
164 0.1604 0.1604 0 0.00417065 0.00417065 2.26211e-05 41.7065 6947.4 9713.29 
184 0.1626 0.1626 0 0.00419445 0.00419445 -8.80523e-05 41.9445 7401.29 10252.7 
204 0.169 0.169 0 0.00436247 0.00436247 -9.28364e-05 43.6247 7352.49 10373 
224 0.1772 0.1772 0 0.00472476 0.00472476 5.0519e-05 47.2476 9008.47 12076.2 
244 0.1578 0.1578 0 0.00422888 0.00422888 6.45553e-05 42.2888 7185.99 10703.2 
264 0.1652 0.1652 0 0.0045764 0.0045764 -7.71711e-05 45.764 8902.26 12703.9 
284 0.1586 0.1586 0 0.00433541 0.00433541 -5.79136e-05 43.3541 8919.41 12631.1 
304 0.1404 0.1404 0 0.00400265 0.00400265 2.97068e-05 40.0265 8812.59 11635.3 
324 0.0076 0.0076 0 0.000241174 0.000241174 1.15644e-05 22.0905 8108.58 11042.5 
344 0.0176 0.0176 0 0.000228588 0.000228588 -4.70181e-05 4.7934 1739.49 2083.53 
364 0.0204 0.0204 0 0.000275049 0.000275049 3.38626e-05 5.26747 1970.3 2590.71 
384 0.0208 0.0208 0 0.000229339 0.000229339 1.27298e-05 5.4448 1741.72 2313.49 
404 0.0172 0.0172 0 0.000174729 0.000174729 -2.36058e-05 4.37754 1462.04 1923.67 
424 0.0182 0.0182 0 0.000206426 0.000206426 -2.86463e-05 5.02056 1801.92 2344.89 
444 0.0198 0.0198 0 0.000202909 0.000202909 -1.3527e-05 5.31645 2095.28 2610.71 
464 0.0194 0.0194 0 0.000224388 0.000224388 1.63127e-05 5.31201 1306.2 1805.38 
484 0.0168 0.0168 0 0.000134392 0.000134392 1.05214e-05 4.45892 1089.9 1527.07 
504 0.0206 0.0206 0 0.000256135 0.000256135 2.43126e-05 5.50448 1639.03 2282.53 
524 0.0164 0.0164 0 0.000173734 0.000173734 3.83235e-05 4.05727 1304.12 1812.97 
544 0.0154 0.0154 0 0.000169912 0.000169912 6.9452e-06 3.67195 1208.75 1539.59 
564 0.0158 0.0158 0 0.00017534 0.00017534 8.49899e-06 3.822 1112.44 1491.4 
584 0.0168 0.0168 0 0.000187017 0.000187017 -8.20435e-06 4.43693 1645.64 2202.92 
604 0.0158 0.0158 0 0.000196494 0.000196494 -7.49974e-05 4.03918 1323.16 1848.62 
624 0.012 0.012 0 0.000165406 0.000165406 1.31685e-05 3.18443 781.095 1095.76 
644 0 0 0 0 0 0 0 0 0 
664 0.0006 0.0006 0 -1.54415e-05 -1.54415e-05 -7.86289e-06 0.154415 16.6838 28.5412 
684 0.0006 0.0006 0 -1.3544e-05 -1.3544e-05 -6.48861e-06 0.13544 31.9548 80.9586 
704 0.0006 0.0006 0 -1.70286e-05 -1.70286e-05 4.45979e-06 0.170286 -17.3002 9.81808 
724 0.0006 0.0006 0 -1.45706e-05 -1.45706e-05 -1.12334e-06 0.145706 100.371 104.646 
744 0.0002 0.0002 0 -4.00864e-06 -4.00864e-06 1.73821e-06 0.0400864 8.02852 9.77237 
764 0.0008 0.0008 0 -2.08405e-05 -2.08405e-05 4.97747e-06 0.208405 37.5811 51.8037 
784 0.0002 0.0002 0 -3.59843e-06 -3.59843e-06 1.24705e-06 0.0359843 -0.660766 -3.86876 
804 0.0008 0.0008 0 -1.22239e-05 -1.22239e-05 -1.27748e-07 0.122239 -4.19836 28.3687 
824 0.0006 0.0006 0 -8.76596e-06 -8.76596e-06 2.72684e-06 0.0876596 -5.60116 -14.1071 
844 0.0008 0.0008 0 -1.77108e-05 -1.77108e-05 7.48164e-07 0.177108 1.50364 7.46218 
864 0.001 0.001 0 -2.72819e-05 -2.72819e-05 -5.19411e-06 0.272819 45.8368 98.7815 
884 0.0004 0.0004 0 -9.50048e-06 -9.50048e-06 -6.52645e-06 0.0950048 8.81476 8.00382 
904 0.0012 0.0012 0 -2.60943e-05 -2.60943e-05 -5.21892e-06 0.260943 20.0536 42.6693 
924 0.0006 0.0006 0 -6.67604e-06 -6.67604e-06 -3.36164e-06 0.0667604 26.8391 24.373 
944 0.0006 0.0006 0 -8.25724e-06 -8.25724e-06 -3.70007e-06 0.0825724 1.08309 -14.3872 
964 0.001 0.001 0 -1.64365e-06 -1.64365e-06 -9.23595e-07 2.53093 856.84 1729.59 
984 0.0152 0.0152 0 0.000229381 0.000229381 3.26041e-05 4.31152 1409.56 1945.06 
1004 0.0122 0.0122 0 0.000123969 0.000123969 8.56727e-07 3.34894 837.914 1197.76 
1024 0.0164 0.0164 0 0.000175294 0.000175294 -2.14849e-05 4.53257 1268.61 1844.33 
1044 0.0182 0.0182 0 0.00018313 0.00018313 -2.62745e-05 4.84652 1232.64 1464.74 
1064 0.0174 0.0174 0 0.000188774 0.000188774 1.03405e-06 4.74583 1535.8 1708.73 
1084 0.0172 0.0172 0 0.000201861 0.000201861 5.8384e-06 4.7455 1278.08 1786.09 
1104 0.0162 0.0162 0 0.000170074 0.000170074 5.44818e-06 4.14209 942.413 1359.56 
1124 0.014 0.014 0 0.00015742 0.00015742 2.08503e-05 3.60721 1357.98 1733.5 
1144 0.0182 0.0182 0 0.000171205 0.000171205 1.44082e-05 4.82898 1506.74 2256.87 
1164 0.0244 0.0244 0 0.000210371 0.000210371 -2.62339e-05 5.96011 1777.36 2641.4 
1184 0.0206 0.0206 0 0.000242102 0.000242102 -2.48705e-05 5.49025 2142.91 3067.33 
1204 0.0216 0.0216 0 0.000248455 0.000248455 -5.65329e-05 5.90532 1756.43 2295.11 
1224 0.0212 0.0212 0 0.000242428 0.000242428 3.99938e-05 5.45877 1857.7 2674.99 
1244 0.0198 0.0198 0 0.000227444 0.000227444 7.14609e-06 4.93667 1748.25 2539.52 
1264 0.0186 0.0186 0 0.00028529 0.00028529 3.82353e-05 5.02137 1797.78 2502.87 
5 0.004 0.004 0 6.9679e-05 6.9679e-05 1.24749e-05 9.35666 2141.47 3381.54 
25 0.1416 0.1416 0 0.00411156 0.00411156 -5.66352e-06 41.1156 11586.1 15616.3 
45 0.1564 0.1564 0 0.00436202 0.00436202 1.38337e-05 43.6202 9366 13045.2 
65 0.16 0.16 0 0.00421487 0.00421487 2.26657e-06 42.1487 7302.52 10710 
85 0.1648 0.1648 0 0.00447554 0.00447554 4.07513e-05 44.7554 7709.01 11289.9 
105 0.1674 0.1674 0 0.00454345 0.00454345 -8.90296e-05 45.4345 7160.78 10391.2 
125 0.1678 0.1678 0 0.00439935 0.00439935 3.86715e-05 43.9935 7913.72 10977 
145 0.1676 0.1676 0 0.00432924 0.00432924 -3.70785e-05 43.2924 5787.8 8948.14 
165 0.1652 0.1652 0 0.00416888 0.00416888 -4.39575e-05 41.6888 7462.43 10392.7 
185 0.1608 0.1608 0 0.00421364 0.00421364 -2.4451e-05 42.1364 7243.99 9999.15 
205 0.171 0.171 0 0.00458375 0.00458375 6.41712e-05 45.8375 8406.46 12261.5 
225 0.1622 0.1622 0 0.00435659 0.00435659 -3.43732e-05 43.5659 7927.09 10539.5 
245 0.1732 0.1732 0 0.00454355 0.00454355 -4.43553e-05 45.4355 8518.34 11965.5 
265 0.1594 0.1594 0 0.00417508 0.00417508 -3.30839e-05 41.7508 7411.82 10271.9 
285 0.1534 0.1534 0 0.00403536 0.00403536 -6.38067e-05 40.3536 8037.81 12010 
305 0.1358 0.1358 0 0.00372618 0.00372618 -2.28276e-05 37.2618 7936.73 10971.4 
325 0.0064 0.0064 0 0.000190782 0.000190782 -9.79432e-06 19.967 8338.63 11962.9 
345 0.0164 0.0164 0 0.000162388 0.000162388 2.52484e-05 4.00751 1295.53 1633.89 
365 0.0172 0.0172 0 0.000186713 0.000186713 1.45383e-05 4.69521 1208.52 1863.27 
385 0.0222 0.0222 0 0.000199255 0.000199255 -9.22859e-06 5.95365 1489.3 2070.39 
405 0.0164 0.0164 0 0.000172841 0.000172841 2.13687e-05 4.32021 1193.12 1648.51 
425 0.02 0.02 0 0.000201614 0.000201614 -2.03947e-05 5.62244 1404.6 1848.49 
445 0.024 0.024 0 0.000225762 0.000225762 4.53586e-05 6.25555 1989.63 2901.81 
465 0.0194 0.0194 0 0.000245273 0.000245273 1.55184e-05 4.8643 1735.14 2273.84 
485 0.0192 0.0192 0 0.000254991 0.000254991 7.43769e-05 5.14661 1586.84 2106.12 
505 0.0166 0.0166 0 0.000161825 0.000161825 -1.56126e-05 4.214 1252.61 1747.35 
525 0.0166 0.0166 0 0.000181316 0.000181316 -4.34116e-05 4.01522 1148.66 1665.12 
545 0.0176 0.0176 0 0.000244925 0.000244925 -1.05821e-05 4.42717 1696.98 2248.31 
565 0.0124 0.0124 0 0.000132013 0.000132013 -1.46884e-05 3.29212 893.114 1260.01 
585 0.019 0.019 0 0.000202892 0.000202892 5.91661e-06 4.82894 1699.18 2219.8 
605 0.013 0.013 0 0.00016404 0.00016404 -3.44478e-05 3.17995 1121.13 1499.3 
625 0.012 0.012 0 0.000165659 0.000165659 2.54243e-05 3.44445 1035.95 1227.14 
645 0 0 0 0 0 0 0 0 0 
665 0.0004 0.0004 0 -1.07626e-05 -1.07626e-05 -7.23909e-06 0.107626 33.9088 47.2368 
685 0.0016 0.0016 0 -2.88526e-05 -2.88526e-05 4.48131e-07 0.288526 28.5077 75.2283 
705 0.001 0.001 0 -1.85164e-05 -1.85164e-05 -2.75037e-06 0.185164 16.5934 27.3824 
725 0.0008 0.0008 0 -2.12396e-05 -2.12396e-05 7.42947e-06 0.212396 -4.96119 -14.1393 
745 0.0004 0.0004 0 -7.71446e-06 -7.71446e-06 -8.1585e-06 0.0771446 -16.9265 -3.78431 
765 0.0012 0.0012 0 -2.39591e-05 -2.39591e-05 3.29341e-06 0.239591 23.6618 72.9246 
785 0.0002 0.0002 0 -4.34367e-06 -4.34367e-06 7.2896e-08 0.0434367 -1.5388 6.89875 
805 0.001 0.001 0 -2.16066e-05 -2.16066e-05 8.12281e-06 0.216066 4.16105 35.418 
825 0.0002 0.0002 0 -2.9383e-06 -2.9383e-06 1.90934e-06 0.029383 -8.13272 -3.5519 
845 0.001 0.001 0 -2.80766e-05 -2.80766e-05 3.10788e-06 0.280766 10.1373 7.12603 
865 0.0004 0.0004 0 -7.73133e-06 -7.73133e-06 1.78267e-06 0.0773133 -14.5075 -8.82128 
885 0.0012 0.0012 0 -3.72621e-05 -3.72621e-05 7.98857e-06 0.372621 50.9047 69.075 
905 0.0004 0.0004 0 -1.36821e-05 -1.36821e-05 0 0.136821 5.05557e-14 5.05557e-14 
925 0.0006 0.0006 0 -1.00646e-05 -1.00646e-05 -4.04502e-06 0.100646 -17.0579 -4.68677 
945 0.0002 0.0002 0 -3.72279e-06 -3.72279e-06 3.65872e-07 0.0372279 3.89956 16.3557 
965 0.0006 0.0006 0 6.19299e-06 6.19299e-06 -2.46014e-06 1.01626 185.036 205.884 
985 0.0118 0.0118 0 0.000152831 0.000152831 4.60877e-06 3.11309 881.041 1223.78 
1005 0.0164 0.0164 0 0.000209614 0.000209614 -3.79866e-05 4.74185 1306.72 1688.2 
1025 0.0168 0.0168 0 0.00023961 0.00023961 7.54707e-06 4.26358 1224.47 1602.38 
1045 0.0176 0.0176 0 0.000195562 0.000195562 -1.57357e-06 4.57377 1588.99 2087.5 
1065 0.0174 0.0174 0 0.000183149 0.000183149 1.82003e-06 4.58988 1261.26 1703.94 
1085 0.0188 0.0188 0 0.000226219 0.000226219 -6.07225e-05 4.92662 1423.58 1894.51 
1105 0.0184 0.0184 0 0.000229391 0.000229391 8.73037e-05 4.98768 1689.34 2553.32 
1125 0.0164 0.0164 0 0.000184789 0.000184789 1.12022e-05 4.37225 1017.31 1488.99 
1145 0.0206 0.0206 0 0.000222414 0.000222414 -6.81825e-05 5.44212 1627 2147.91 
1165 0.0206 0.0206 0 0.000253245 0.000253245 1.41905e-05 5.57026 1670.16 2285.1 
1185 0.0154 0.0154 0 0.000191628 0.000191628 2.64864e-05 4.45247 1249.99 1678.1 
1205 0.0204 0.0204 0 0.000273983 0.000273983 8.06986e-06 5.28953 1889.63 2732.26 
1225 0.0196 0.0196 0 0.000231224 0.000231224 1.31366e-05 4.55841 1319.16 1866 
1245 0.0194 0.0194 0 0.000268023 0.000268023 -1.13771e-05 5.25211 1983.79 2757.75 
1265 0.0168 0.0168 0 0.000228601 0.000228601 -3.14545e-05 4.42144 1424.44 2358.14 
6 0.0046 0.0046 0 0.000110479 0.000110479 8.49188e-07 12.775 2741.69 5665.13 
26 0.1406 0.1406 0 0.00425516 0.00425516 6.24265e-07 42.5516 10740.4 13782.5 
46 0.1572 0.1572 0 0.00428226 0.00428226 -4.91727e-05 42.8226 8627.31 11731.2 
66 0.1656 0.1656 0 0.00446776 0.00446776 0.000115403 44.6776 9009.02 12297.2 
86 0.1692 0.1692 0 0.00450553 0.00450553 0.000137014 45.0553 7294.07 10428.9 
106 0.1736 0.1736 0 0.00458899 0.00458899 -5.43215e-05 45.8899 8225.38 11736.8 
126 0.1764 0.1764 0 0.00467791 0.00467791 -7.77082e-05 46.7791 7626.34 11021.3 
146 0.17 0.17 0 0.00436485 0.00436485 -1.1835e-05 43.6485 7342.44 10338.1 
166 0.1724 0.1724 0 0.00445996 0.00445996 -2.23223e-05 44.5996 7690.42 10607.2 
186 0.1856 0.1856 0 0.00490707 0.00490707 -7.74222e-05 49.0707 9022.19 12323.8 
206 0.166 0.166 0 0.00437301 0.00437301 -1.4271e-05 43.7301 6491.2 9324.95 
226 0.1616 0.1616 0 0.00430542 0.00430542 -3.56151e-05 43.0542 7267.63 10152.8 
246 0.1612 0.1612 0 0.00427134 0.00427134 9.04121e-05 42.7134 7508.19 10170.2 
266 0.159 0.159 0 0.00411785 0.00411785 -7.45558e-05 41.1785 8029.84 11893.2 
286 0.154 0.154 0 0.00417235 0.00417235 -0.00010068 41.7235 8778.94 12322.6 
306 0.1408 0.1408 0 0.00401342 0.00401342 -4.33262e-06 40.1342 10356.7 13844.1 
326 0.0074 0.0074 0 0.000209632 0.000209632 2.23886e-05 23.4385 9065.28 11814.1 
346 0.015 0.015 0 0.000169036 0.000169036 -1.19413e-05 3.52794 1395.06 1848.76 
366 0.0212 0.0212 0 0.000232749 0.000232749 -1.61465e-05 5.29545 1486.87 2176.71 
386 0.0192 0.0192 0 0.000223446 0.000223446 -1.91312e-05 4.71471 1717.02 2354.38 
406 0.0174 0.0174 0 0.000202697 0.000202697 -1.02975e-05 4.32792 1613.88 2070.06 
426 0.0218 0.0218 0 0.000152856 0.000152856 1.72925e-05 5.41484 1250.35 1783.49 
446 0.0184 0.0184 0 0.000193096 0.000193096 -3.83404e-05 4.76486 1380.73 1972.52 
466 0.0164 0.0164 0 0.000246004 0.000246004 2.75396e-05 4.18902 1780.96 2286.2 
486 0.019 0.019 0 0.000218483 0.000218483 3.44444e-05 5.27081 1356.48 1749.77 
506 0.0168 0.0168 0 0.00021271 0.00021271 -8.40167e-07 4.64846 1666.74 1922.53 
526 0.0214 0.0214 0 0.000225593 0.000225593 1.28301e-05 5.52672 1480.28 2064.95 
546 0.0192 0.0192 0 0.000225679 0.000225679 9.8807e-06 5.22678 1836.14 2140.51 
566 0.014 0.014 0 0.000201688 0.000201688 -3.98161e-05 3.60015 1406.11 1624.17 
586 0.0166 0.0166 0 0.000154827 0.000154827 -8.83462e-06 4.62994 1363.67 1756.07 
606 0.017 0.017 0 0.000196058 0.000196058 -3.00271e-05 4.57721 1500.11 1601.64 
626 0.0144 0.0144 0 0.000159296 0.000159296 -3.47841e-05 3.61934 1077.82 1435.07 
646 0 0 0 0 0 0 0 0 0 
666 0.0004 0.0004 0 -6.43409e-06 -6.43409e-06 2.36074e-06 0.0643409 17.4119 23.5983 
686 0.0006 0.0006 0 -9.64036e-06 -9.64036e-06 4.82462e-07 0.0964036 33.2632 36.07 
706 0.0004 0.0004 0 -8.77986e-06 -8.77986e-06 5.83125e-06 0.0877986 16.522 19.1872 
726 0.0014 0.0014 0 -4.00145e-05 -4.00145e-05 5.82587e-06 0.400145 24.8078 42.1448 
746 0.0012 0.0012 0 -3.05575e-05 -3.05575e-05 -1.22504e-06 0.305575 48.4036 80.9485 
766 0.0008 0.0008 0 -1.77296e-05 -1.77296e-05 7.49273e-07 0.177296 31.2844 78.6618 
786 0.0004 0.0004 0 -8.84518e-06 -8.84518e-06 -8.60082e-06 0.0884518 39.6509 53.306 
806 0.001 0.001 0 -1.41579e-05 -1.41579e-05 3.62412e-06 0.141579 33.5303 54.09 
826 0.0004 0.0004 0 -6.23334e-06 -6.23334e-06 2.37394e-06 0.0623334 8.33733 -7.77158 
846 0.0012 0.0012 0 -2.34617e-05 -2.34617e-05 -6.20512e-07 0.234617 32.6599 71.4114 
866 0.0004 0.0004 0 -6.32831e-06 -6.32831e-06 9.24624e-06 0.0632831 3.53042 0.813658 
886 0.0004 0.0004 0 -5.98407e-06 -5.98407e-06 -1.91553e-06 0.0598407 6.95106 13.448 
906 0 0 0 0 0 0 0 0 0 
926 0.0002 0.0002 0 -4.34888e-06 -4.34888e-06 -5.92376e-06 0.0434888 -7.187 2.12485 
946 0.0008 0.0008 0 -2.2686e-05 -2.2686e-05 2.67317e-06 0.22686 20.4262 26.0556 
966 0.0006 0.0006 0 -3.03892e-06 -3.03892e-06 -4.4695e-06 1.38976 147.371 390.342 
986 0.0144 0.0144 0 0.000140818 0.000140818 2.65158e-05 3.62769 822.9 1013.74 
1006 0.0122 0.0122 0 0.000162425 0.000162425 3.79651e-05 3.29958 1284.1 1556.65 
1026 0.0168 0.0168 0 0.000219259 0.000219259 9.72026e-07 4.22699 1327.62 1995.97 
1046 0.0186 0.0186 0 0.000249274 0.000249274 -1.47488e-05 4.87141 1638.91 1988.82 