ITEM: TIMESTEP
25000
ITEM: NUMBER OF SURFS
1272
ITEM: BOX BOUNDS oo rr pp
0 0.3
0 0.3
-0.5 0.5
ITEM: SURFS id f_4[1] f_4[2] f_4[3] f_4[4] f_4[5] f_4[6] f_4[7] f_4[8] f_4[9] 
1 0.004 0.004 0 0.000291979 0.000291979 -7.91132e-06 42.1342 13533.8 21615 
41 0.4152 0.4152 0 0.042153 0.042153 -0.000206616 421.53 56240 73709 
81 0.4346 0.4346 0 0.0438303 0.0438303 0.000293236 438.303 56191.9 75139.3 
121 0.4586 0.4586 0 0.0459772 0.0459772 0.000428003 459.772 52856.4 73960.9 
161 0.4628 0.4628 0 0.0454566 0.0454566 0.000229164 454.566 47579.5 66098.5 
201 0.4324 0.4324 0 0.0420086 0.0420086 -0.000896413 420.086 45777.5 65310.4 
241 0.4448 0.4448 0 0.0439739 0.0439739 5.09398e-05 439.739 53291.7 72876.6 
281 0.4258 0.4258 0 0.042371 0.042371 -0.000258641 423.71 56358.1 74898.5 
321 0.02 0.02 0 0.00223106 0.00223106 -7.15307e-05 226.113 31459 49714.8 
361 0.0454 0.0454 0 0.00124834 0.00124834 8.82386e-05 43.6394 7518.42 10371.9 
401 0.0432 0.0432 0 0.000831761 0.000831761 3.65669e-05 43.5043 6461.02 7947.09 
441 0.0494 0.0494 0 0.00101568 0.00101568 -0.000102695 45.199 5505.83 8179.23 
481 0.0454 0.0454 0 0.000908825 0.000908825 0.000121455 43.9797 4889.97 6449.99 
521 0.0502 0.0502 0 0.00102987 0.00102987 -5.53536e-05 49.7878 5150.36 7037.01 
561 0.0494 0.0494 0 0.000884671 0.000884671 8.44377e-05 46.1937 5758.39 7408.59 
601 0.0404 0.0404 0 0.00072304 0.00072304 6.67555e-05 37.455 4356.31 6106.58 
641 0.0012 0.0012 0 2.41476e-05 2.41476e-05 -1.6388e-05 7.25993 2901.47 4224.7 
681 0.0046 0.0046 0 -0.000412919 -0.000412919 6.11694e-05 4.12919 125.038 446.809 
721 0.0088 0.0088 0 -0.000801135 -0.000801135 -3.11686e-05 8.01135 15.1044 29.4102 
761 0.0112 0.0112 0 -0.000995483 -0.000995483 6.19485e-05 9.95483 741.453 841.188 
801 0.0106 0.0106 0 -0.00108322 -0.00108322 -9.65634e-07 10.8322 693.69 1177.69 
841 0.0102 0.0102 0 -0.000907745 -0.000907745 -7.87405e-05 9.07745 575.38 973.126 
881 0.0096 0.0096 0 -0.000888933 -0.000888933 -2.87477e-05 8.88933 266.024 382.841 
921 0.0058 0.0058 0 -0.00053082 -0.00053082 -8.21993e-06 5.3082 567.66 658.675 
961 0.0004 0.0004 0 -1.6054e-05 -1.6054e-05 -1.41891e-05 2.67531 -537.584 -372.479 
1001 0.0366 0.0366 0 0.000933263 0.000933263 0.000118821 36.9633 3603.58 4684.6 
1041 0.043 0.043 0 0.000793123 0.000793123 -9.2328e-05 42.3771 4845.7 6262.95 
1081 0.0424 0.0424 0 0.00104247 0.00104247 5.4838e-05 40.4261 4082.47 5458.47 
1121 0.0452 0.0452 0 0.000847936 0.000847936 -1.38459e-05 43.6641 5748.5 8031.22 
1161 0.0456 0.0456 0 0.000954681 0.000954681 6.51286e-05 43.9856 5771.83 8731.2 
1201 0.0464 0.0464 0 0.00112052 0.00112052 -1.2198e-05 44.8524 6818.2 8429.75 
1241 0.043 0.043 0 0.00141617 0.00141617 -0.000173184 40.4252 7146.19 9215.15 
2 0.0064 0.0064 0 0.000452365 0.000452365 1.32961e-05 56.8568 12338.8 19287.3 
42 0.4164 0.4164 0 0.0415445 0.0415445 0.000213418 415.445 51709.8 68657 
82 0.4704 0.4704 0 0.0463233 0.0463233 9.71788e-05 463.233 54470.7 75010 
122 0.4336 0.4336 0 0.0430755 0.0430755 0.000368282 430.755 46497.4 66609 
162 0.4752 0.4752 0 0.0462242 0.0462242 5.42114e-06 462.242 51025.5 68981.2 
202 0.4498 0.4498 0 0.0442867 0.0442867 0.000471709 442.867 50680.8 70337.7 
242 0.4304 0.4304 0 0.0428668 0.0428668 -8.65659e-05 428.668 50465.5 68796.3 
282 0.4252 0.4252 0 0.0421594 0.0421594 0.000519089 421.594 53418.8 72728 
322 0.0162 0.0162 0 0.00156854 0.00156854 -0.000123278 167.005 25918.6 40746 
362 0.0432 0.0432 0 0.00155358 0.00155358 -0.000187301 43.1987 9419.31 12329.2 
402 0.049 0.049 0 0.00126073 0.00126073 -0.000207815 46.8254 7041.73 9321.1 
442 0.0558 0.0558 0 0.0011793 0.0011793 6.61378e-05 54.3468 6526.14 8076.3 
482 0.0506 0.0506 0 0.000622515 0.000622515 6.43144e-05 47.4192 5663.98 7471.7 
522 0.048 0.048 0 0.00114739 0.00114739 -5.96191e-05 46.3415 5619.91 7358.12 
562 0.0448 0.0448 0 0.000639515 0.000639515 0.000165135 44.3536 3766.32 5045.58 
602 0.038 0.038 0 0.000609738 0.000609738 -0.000186475 34.7227 3369.71 4454.33 
642 0.0006 0.0006 0 -1.28328e-05 -1.28328e-05 -1.89857e-05 4.59856 -92.628 433.059 
682 0.0062 0.0062 0 -0.000512088 -0.000512088 4.17286e-05 5.12088 166.199 444.565 
722 0.0112 0.0112 0 -0.000990287 -0.000990287 2.0697e-05 9.90287 1031.03 1380.99 
762 0.0094 0.0094 0 -0.00094093 -0.00094093 -0.000124962 9.4093 1027.93 1004.68 
802 0.0128 0.0128 0 -0.00106483 -0.00106483 2.05093e-05 10.6483 955.446 1265.71 
842 0.0106 0.0106 0 -0.000977357 -0.000977357 6.82639e-05 9.77357 -108.601 512.153 
882 0.0078 0.0078 0 -0.000720207 -0.000720207 6.55609e-05 7.20207 700.984 578.421 
922 0.0064 0.0064 0 -0.000541106 -0.000541106 -1.38479e-05 5.41106 306.44 519.981 
962 0.0008 0.0008 0 -1.11412e-05 -1.11412e-05 -2.08425e-05 5.05112 -100.345 343.906 
1002 0.0368 0.0368 0 0.000592058 0.000592058 0.000179649 34.3051 3830.48 4337.83 
1042 0.05 0.05 0 0.000818547 0.000818547 7.00312e-05 47.429 3687.67 5677.75 
1082 0.046 0.046 0 0.000846666 0.000846666 -0.000149868 47.2523 5162.93 7193.8 
1122 0.0504 0.0504 0 0.000837658 0.000837658 5.75249e-05 48.3424 6071.76 8593.82 
1162 0.0508 0.0508 0 0.000972354 0.000972354 2.67809e-05 53.0657 7786.1 9832.17 
1202 0.0504 0.0504 0 0.0012511 0.0012511 0.000138082 48.9046 8213.71 10504.7 
1242 0.0392 0.0392 0 0.00116659 0.00116659 -6.90485e-05 40.1375 8228.16 9614.79 
3 0.0064 0.0064 0 0.000415194 0.000415194 -0.000180688 63.2762 15055.5 20613.3 
43 0.4276 0.4276 0 0.0426815 0.0426815 0.0001182 426.815 55243.9 73388.2 
83 0.4676 0.4676 0 0.0459056 0.0459056 -0.000293258 459.056 56015.2 74616.2 
123 0.4442 0.4442 0 0.0439578 0.0439578 0.000104332 439.578 52293.9 68035.7 
163 0.4718 0.4718 0 0.0457548 0.0457548 8.59703e-05 457.548 51121.7 68824.7 
203 0.467 0.467 0 0.0455281 0.0455281 -0.000273888 455.281 53377.6 71367.5 
243 0.4522 0.4522 0 0.0447491 0.0447491 0.000107661 447.491 49251.8 65541.7 
283 0.434 0.434 0 0.0431252 0.0431252 -0.00030095 431.252 61405.9 79846.1 
323 0.0162 0.0162 0 0.00163278 0.00163278 -9.36611e-05 158.328 33053.7 38340.2 
363 0.047 0.047 0 0.00156279 0.00156279 6.03736e-05 45.2874 10275.1 12477.8 
403 0.043 0.043 0 0.00109647 0.00109647 -6.41772e-05 40.9124 6134.59 8170.09 
443 0.0512 0.0512 0 0.000885129 0.000885129 6.22681e-05 47.7149 4880.56 5932.56 
483 0.0508 0.0508 0 0.00098765 0.00098765 0.000116348 48.0682 5587.7 7330.68 
523 0.048 0.048 0 0.00110915 0.00110915 6.79908e-05 46.1038 6036.06 7617.61 
563 0.0442 0.0442 0 0.000734118 0.000734118 0.00015814 41.7138 4466.68 6165.02 
603 0.044 0.044 0 0.000884356 0.000884356 -8.71537e-05 42.7387 5270.15 6926.2 
643 0.0006 0.0006 0 -2.47247e-05 -2.47247e-05 -2.39179e-05 4.86043 356.353 1914.06 
683 0.0042 0.0042 0 -0.000336905 -0.000336905 1.1793e-06 3.36905 214.468 294.338 
723 0.0084 0.0084 0 -0.000796739 -0.000796739 -4.17573e-05 7.96739 422.304 632.901 
763 0.01 0.01 0 -0.000928867 -0.000928867 9.46705e-05 9.28867 255.712 160.768 
803 0.012 0.012 0 -0.00122864 -0.00122864 -3.42143e-06 12.2864 866.691 1331.4 
843 0.0124 0.0124 0 -0.00128711 -0.00128711 -4.60801e-05 12.8711 827.283 862.384 
883 0.0074 0.0074 0 -0.000606261 -0.000606261 -2.48833e-05 6.06261 410.867 339.235 
923 0.0054 0.0054 0 -0.000501009 -0.000501009 6.26847e-05 5.01009 694.098 921.019 
963 0.0012 0.0012 0 -5.64752e-05 -5.64752e-05 2.6004e-05 10.7431 100.668 677.499 
1003 0.0382 0.0382 0 0.000854633 0.000854633 7.39001e-05 37.5699 4596.35 5685.93 
1043 0.0474 0.0474 0 0.000661207 0.000661207 3.34241e-05 46.2002 4953.98 6576.05 
1083 0.0462 0.0462 0 0.000905823 0.000905823 -0.000106422 43.4025 5898.83 7113.27 
1123 0.0494 0.0494 0 0.00104013 0.00104013 8.86139e-05 48.1486 5795.65 7538.98 
1163 0.0438 0.0438 0 0.00103605 0.00103605 -5.18931e-05 44.6788 6749.05 7911.67 
1203 0.0502 0.0502 0 0.000962346 0.000962346 -8.60313e-06 50.4336 6788.64 9507.46 
1243 0.0406 0.0406 0 0.00133781 0.00133781 0.000118503 39.8161 8998.54 11053.1 
4 0.0066 0.0066 0 0.00043282 0.00043282 1.57178e-05 66.3971 5451.65 9993.2 
44 0.389 0.389 0 0.039415 0.039415 0.000214124 394.15 51934.4 71199.4 
84 0.4226 0.4226 0 0.0420861 0.0420861 0.000185649 420.861 51157.6 66941 
124 0.4436 0.4436 0 0.0437223 0.0437223 -0.000779134 437.223 45420.3 64148.6 
164 0.4844 0.4844 0 0.0472734 0.0472734 -0.000586713 472.734 52420.4 73805.8 
204 0.4616 0.4616 0 0.0447177 0.0447177 0.000101523 447.177 52467.1 72134.5 
244 0.458 0.458 0 0.045189 0.045189 0.000270314 451.89 52495 69796.3 
284 0.4238 0.4238 0 0.042105 0.042105 -0.000472525 421.05 51082 71064.2 
324 0.0114 0.0114 0 0.00107146 0.00107146 8.15816e-05 113.22 27868.2 37621.5 
364 0.0406 0.0406 0 0.00166922 0.00166922 2.85729e-05 38.7979 7610.8 10285.6 
404 0.044 0.044 0 0.00119967 0.00119967 0.000480908 43.1397 7545.32 9714.58 
444 0.047 0.047 0 0.000720465 0.000720465 -5.45827e-07 46.6828 4218.71 5806.93 
484 0.0474 0.0474 0 0.000740828 0.000740828 6.98357e-05 44.6477 4696.29 6753.49 
524 0.0488 0.0488 0 0.000897068 0.000897068 -4.74504e-05 46.2663 4590.61 6654.67 
564 0.0452 0.0452 0 0.000701988 0.000701988 -0.000195617 43.4029 5844.67 7803.13 
604 0.0392 0.0392 0 0.000985971 0.000985971 -6.11674e-05 37.8451 4134.98 4702.48 
644 0.0004 0.0004 0 -2.47936e-05 -2.47936e-05 -7.16491e-06 4.74555 1167.25 2199.06 
684 0.003 0.003 0 -0.00022611 -0.00022611 -6.52599e-05 2.2611 -16.3906 97.6952 
724 0.0096 0.0096 0 -0.000758869 -0.000758869 1.07309e-05 7.58869 298.429 531.541 
764 0.0084 0.0084 0 -0.000816189 -0.000816189 -0.000104305 8.16189 771.271 908.26 
804 0.0098 0.0098 0 -0.00080971 -0.00080971 3.90198e-05 8.0971 500.746 845.107 
844 0.0102 0.0102 0 -0.000906643 -0.000906643 -7.83569e-05 9.06643 165.552 481.431 
884 0.0108 0.0108 0 -0.000934712 -0.000934712 -2.28823e-05 9.34712 252.627 299.854 
924 0.0038 0.0038 0 -0.000357458 -0.000357458 1.34984e-05 3.57458 72.7682 195.208 
964 0.0012 0.0012 0 -1.18717e-06 -1.18717e-06 2.04238e-05 8.47907 3124.2 3164.46 
1004 0.0404 0.0404 0 0.000726296 0.000726296 7.05259e-05 39.9217 4704.94 6079.98 
1044 0.0496 0.0496 0 0.00100019 0.00100019 -0.000138778 47.5913 5209.43 6527.52 
1084 0.0462 0.0462 0 0.00103203 0.00103203 6.40458e-05 43.5922 5052.24 6287.8 
1124 0.049 0.049 0 0.000908073 0.000908073 0.000256952 47.7814 5420.34 7648.93 
1164 0.0416 0.0416 0 0.000818694 0.000818694 -1.02946e-05 42.6485 4142.58 5740.89 
1204 0.0486 0.0486 0 0.00106087 0.00106087 0.000171222 47.4242 6742.16 8814.34 
1244 0.0444 0.0444 0 0.00152787 0.00152787 -7.33766e-06 42.9715 8731.73 10444.6 
5 0.0084 0.0084 0 0.000631272 0.000631272 7.06745e-06 87.0318 12119.7 18119.4 
45 0.3858 0.3858 0 0.0377924 0.0377924 9.78479e-05 377.924 48564.3 65587.3 
85 0.4034 0.4034 0 0.0402489 0.0402489 -0.000194105 402.489 50946 67848.4 
125 0.4512 0.4512 0 0.0443025 0.0443025 0.000565762 443.025 47773.1 65474 
165 0.4578 0.4578 0 0.0445172 0.0445172 0.000125082 445.172 44972.9 62685.6 
205 0.4806 0.4806 0 0.0468767 0.0468767 0.000286171 468.767 49953.2 70164.8 
245 0.4334 0.4334 0 0.0431384 0.0431384 -0.000330652 431.384 51420.7 70897.5 
285 0.4014 0.4014 0 0.0396224 0.0396224 -0.000383375 396.224 51093.2 69509.2 
325 0.0116 0.0116 0 0.00118649 0.00118649 6.71874e-05 126.78 22847.4 31916.7 
365 0.0418 0.0418 0 0.00151893 0.00151893 2.548e-05 39.3337 7216.35 8768.15 
405 0.0484 0.0484 0 0.00139306 0.00139306 9.60943e-05 49.1658 7691.62 9069.39 
445 0.0442 0.0442 0 0.000900714 0.000900714 -7.81115e-05 43.3946 6190.28 8037.8 
485 0.0534 0.0534 0 0.00112208 0.00112208 -0.000378258 51.9425 6156.58 8080.38 
525 0.052 0.052 0 0.000754172 0.000754172 0.0001875 51.7555 5107 6519.47 
565 0.0446 0.0446 0 0.000714798 0.000714798 -2.51823e-06 41.7318 3776.67 4526.37 
605 0.0408 0.0408 0 0.000954757 0.000954757 -1.85141e-05 37.4655 4357.18 5617.4 
645 0.001 0.001 0 -6.71856e-05 -6.71856e-05 3.38751e-05 8.30546 -828.989 -378.923 
685 0.0074 0.0074 0 -0.000539328 -0.000539328 -8.69951e-05 5.39328 296.426 715.117 
725 0.0108 0.0108 0 -0.000896868 -0.000896868 1.12146e-05 8.96868 1064.22 1256.73 
765 0.0108 0.0108 0 -0.001056 -0.001056 -5.99285e-06 10.56 928.142 1239.66 
805 0.0114 0.0114 0 -0.00102074 -0.00102074 -7.36575e-05 10.2074 1068.97 1811.1 
845 0.0116 0.0116 0 -0.00106748 -0.00106748 -3.12126e-05 10.6748 302.642 372.974 
885 0.0068 0.0068 0 -0.000594286 -0.000594286 -7.88208e-05 5.94286 380.117 734.433 
925 0.0064 0.0064 0 -0.000605107 -0.000605107 -9.02469e-06 6.05107 216.495 557.655 
965 0.0008 0.0008 0 6.51423e-06 6.51423e-06 -1.0113e-05 8.11738 2447.7 2610 
1005 0.0418 0.0418 0 0.000967689 0.000967689 -9.76168e-06 40.4176 4266.87 6296.84 
1045 0.0506 0.0506 0 0.000775945 0.000775945 -0.000182731 49.0805 4207.56 6239.77 
1085 0.0508 0.0508 0 0.0009568 0.0009568 0.000241852 47.9975 6027.15 7227.67 
1125 0.0506 0.0506 0 0.00106269 0.00106269 -0.000106913 50.4566 4827.33 7605.38 
1165 0.0428 0.0428 0 0.000900927 0.000900927 -7.24448e-05 43.2176 5357.51 6645.45 
1205 0.0488 0.0488 0 0.00128298 0.00128298 -1.08544e-05 49.6644 8175.91 10932.2 
1245 0.04 0.04 0 0.00142618 0.00142618 0.000265889 38.944 8564.13 10714.1 
6 0.0092 0.0092 0 0.000836073 0.000836073 5.00766e-05 98.0909 19683.1 25757.6 
46 0.3846 0.3846 0 0.0382504 0.0382504 -0.000538053 382.504 50942.2 69488.1 
86 0.4334 0.4334 0 0.0420007 0.0420007 4.85296e-06 420.007 50597.3 68239.7 
126 0.42 0.42 0 0.0410176 0.0410176 -0.000357669 410.176 49476.3 66990.7 
166 0.4696 0.4696 0 0.0457874 0.0457874 -0.000158327 457.874 50414.5 68623.5 
206 0.43 0.43 0 0.0429389 0.0429389 -9.935e-05 429.389 49737.9 68594.1 
246 0.4118 0.4118 0 0.0409623 0.0409623 0.000314051 409.623 45636.4 63565.1 
286 0.3798 0.3798 0 0.0375196 0.0375196 -0.000593291 375.196 51501.4 70190.8 
326 0.0092 0.0092 0 0.000863824 0.000863824 3.5679e-05 91.6905 13903.2 24266.4 
366 0.0432 0.0432 0 0.00115474 0.00115474 8.91485e-05 45.5959 7615.29 10350.3 
406 0.0414 0.0414 0 0.000792464 0.000792464 -0.000133861 40.2725 5707.61 7881.39 
446 0.0464 0.0464 0 0.000656933 0.000656933 -0.000128644 45.9044 6132.53 8052.38 
486 0.0434 0.0434 0 0.000846365 0.000846365 2.34128e-05 42.9129 4167.76 5619.88 
526 0.0524 0.0524 0 0.000958556 0.000958556 7.70357e-05 48.2973 5021.47 7077.32 
566 0.043 0.043 0 0.000784695 0.000784695 -0.000217175 42.3331 4593.68 6001.13 
606 0.0404 0.0404 0 0.000717356 0.000717356 -0.00016694 37.4784 4629.04 5848.7 
646 0.0012 0.0012 0 -6.02449e-05 -6.02449e-05 2.9031e-05 9.31284 -4.95897 -109.915 
686 0.0064 0.0064 0 -0.000520564 -0.000520564 7.0759e-05 5.20564 -108.771 131.46 
726 0.0108 0.0108 0 -0.000975446 -0.000975446 -5.2409e-05 9.75446 325.336 752.08 
766 0.0114 0.0114 0 -0.001125 -0.001125 -1.16078e-05 11.25 250.634 303.203 
806 0.0122 0.0122 0 -0.001187 -0.001187 -0.000131705 11.87 804.231 1162.17 
846 0.0104 0.0104 0 -0.000991237 -0.000991237 -0.000124417 9.91237 1032.56 1143.33 
886 0.0078 0.0078 0 -0.000681796 -0.000681796 5.83146e-05 6.81796 385.499 568.196 
926 0.0058 0.0058 0 -0.00052671 -0.00052671 -4.22164e-05 5.2671 341.513 522.998 
966 0.0016 0.0016 0 7.84836e-06 7.84836e-06 -2.60429e-05 15.1662 1809.54 2562.41 
1006 0.041 0.041 0 0.000651263 0.000651263 0.000120398 38.6611 4631.91 6559.67 
1046 0.0438 0.0438 0 0.00088594 0.00088594 8.97041e-05 42.9121 4292.74 5518.43 
1086 0.0462 0.0462 0 0.000742813 0.000742813 8.76458e-05 43.9835 5259.54 7413.3 
1126 0.0464 0.0464 0 0.000851206 0.000851206 8.87513e-06 46.0719 5159.71 7505.75 
1166 0.046 0.046 0 0.00111828 0.00111828 6.74382e-06 44.7352 5775.44 6808.02 
1206 0.05 0.05 0 0.0011028 0.0011028 -0.000118967 47.8078 6666.63 8027.03 
1246 0.0426 0.0426 0 0.00139956 0.00139956 -4.01181e-05 43.9282 7064.51 9093.96 
7 0.0094 0.0094 0 0.000896202 0.000896202 3.55638e-05 97.6167 15880.3 25304.1 
47 0.3758 0.3758 0 0.0374433 0.0374433 -9.86007e-05 374.433 52205.9 68614.1 
87 0.4462 0.4462 0 0.0426011 0.0426011 -3.24656e-05 426.011 47024.1 67360.8 
127 0.4484 0.4484 0 0.0438494 0.0438494 3.10327e-05 438.494 47291.7 64495.5 
167 0.4394 0.4394 0 0.0432379 0.0432379 0.000512834 432.379 49542.3 64954.7 
207 0.431 0.431 0 0.0424222 0.0424222 0.000157708 424.222 48852 70293.2 
247 0.4214 0.4214 0 0.0422655 0.0422655 0.000393331 422.655 48425.7 63641.6 
287 0.3694 0.3694 0 0.0367441 0.0367441 -2.07233e-05 367.441 53789.2 72309.5 
327 0.0078 0.0078 0 0.00063727 0.00063727 -2.22043e-05 78.0268 14951.2 19560.1 
367 0.0496 0.0496 0 0.00161721 0.00161721 -0.000237764 47.8919 9888.21 11542.4 
407 0.0416 0.0416 0 0.0012208 0.0012208 -0.000134549 41.5846 4800.2 7155.04 
447 0.0402 0.0402 0 0.000774593 0.000774593 -0.000139302 38.3212 5482.87 6906.61 
487 0.0474 0.0474 0 0.000840086 0.000840086 2.51772e-05 44.894 5451.85 8073.83 
527 0.0492 0.0492 0 0.000982505 0.000982505 0.000120106 44.9475 6649.52 8990.14 
567 0.0388 0.0388 0 0.000796478 0.000796478 1.82462e-05 39.97 4416.44 5361.04 
607 0.037 0.037 0 0.000761248 0.000761248 0.000137338 35.4028 2483.55 3664.07 
647 0.0004 0.0004 0 -1.16014e-05 -1.16014e-05 -1.91928e-05 2.6462 -495.231 -491.335 
687 0.0062 0.0062 0 -0.000599674 -0.000599674 -1.04704e-06 5.99674 414.661 580.115 
727 0.0092 0.0092 0 -0.00079649 -0.00079649 -4.42006e-05 7.9649 367.861 934.142 
767 0.0108 0.0108 0 -0.00098253 -0.00098253 5.01037e-05 9.8253 908.411 980.987 
807 0.0128 0.0128 0 -0.00108271 -0.00108271 -1.16668e-05 10.8271 829.878 1422.09 
847 0.0102 0.0102 0 -0.000941028 -0.000941028 1.82305e-05 9.41028 617.041 923.478 
887 0.0084 0.0084 0 -0.000835005 -0.000835005 -5.57781e-05 8.35005 638.131 764.387 
927 0.0034 0.0034 0 -0.000289603 -0.000289603 -3.27729e-05 2.89603 334.632 423.681 
967 0.0024 0.0024 0 6.94463e-05 6.94463e-05 -1.00867e-05 25.3998 7042.62 7127.39 
1007 0.0466 0.0466 0 0.000538124 0.000538124 -0.000138445 44.2982 4118.9 5056.27 
1047 0.0502 0.0502 0 0.000832426 0.000832426 8.98982e-05 46.0657 5101.11 7335.87 
1087 0.0464 0.0464 0 0.000955115 0.000955115 -0.000272005 44.8591 5770.6 7155 
1127 0.0482 0.0482 0 0.000805129 0.000805129 -0.000354034 49.093 6881.47 8222.72 
1167 0.048 0.048 0 0.000789838 0.000789838 8.96729e-05 47.6561 5670.32 7044.76 
1207 0.0468 0.0468 0 0.00105299 0.00105299 -0.00020719 46.0777 6890.23 8932.63 
1247 0.0394 0.0394 0 0.00130101 0.00130101 -7.73098e-05 38.969 7250.94 9487.37 
8 0.0096 0.0096 0 0.000896035 0.000896035 2.80316e-05 93.9321 13633.5 15545.7 
48 0.4154 0.4154 0 0.0416775 0.0416775 4.33935e-05 416.775 50065.6 69274.2 
88 0.427 0.427 0 0.0414935 0.0414935 -7.16478e-05 414.935 49274.8 67188.1 
128 0.4796 0.4796 0 0.0468128 0.0468128 -7.31171e-05 468.128 50432.7 68990.2 
168 0.467 0.467 0 0.0455716 0.0455716 -0.00016848 455.716 49628.1 69703.4 
208 0.4326 0.4326 0 0.041827 0.041827 -0.000590949 418.27 44043.6 61763.8 
248 0.428 0.428 0 0.0416676 0.0416676 0.000314405 416.676 51581.1 68652.3 
288 0.3678 0.3678 0 0.0372644 0.0372644 -0.000205254 372.644 50617.5 66655 
328 0.0084 0.0084 0 0.000580648 0.000580648 5.74136e-06 77.2363 9703.58 16440 
368 0.038 0.038 0 0.00100151 0.00100151 9.82382e-05 37.7423 7574.72 9764.78 
408 0.046 0.046 0 0.00101913 0.00101913 0.000176904 43.1181 7035.31 8514.54 
448 0.0478 0.0478 0 0.00101871 0.00101871 7.32641e-05 45.7922 6128.2 8719.41 
488 0.0488 0.0488 0 0.00102116 0.00102116 6.52022e-05 48.8132 6207.93 8135.73 
528 0.0482 0.0482 0 0.000999499 0.000999499 9.96599e-05 44.9844 5495.77 7576.77 
568 0.045 0.045 0 0.000886232 0.000886232 -2.85085e-05 43.7052 5660.89 8016.14 
608 0.0406 0.0406 0 0.000981037 0.000981037 -5.39838e-05 35.9185 3659.73 5343.02 
648 0.0002 0.0002 0 -9.63835e-06 -9.63835e-06 7.42321e-06 1.28734 -378.72 -665.124 
688 0.0056 0.0056 0 -0.000463565 -0.000463565 1.04148e-06 4.63565 337.346 356.871 
728 0.0062 0.0062 0 -0.000620958 -0.000620958 -0.000146952 6.20958 502.111 650.975 
768 0.011 0.011 0 -0.00115049 -0.00115049 8.12657e-05 11.5049 1312.06 1753.32 
808 0.0106 0.0106 0 -0.000964548 -0.000964548 7.35494e-05 9.64548 680.748 876.471 
848 0.0094 0.0094 0 -0.000910846 -0.000910846 1.65831e-05 9.10846 777.033 628.128 
888 0.0076 0.0076 0 -0.000636279 -0.000636279 -7.36803e-05 6.36279 389.669 495.33 
928 0.0062 0.0062 0 -0.00056926 -0.00056926 5.84758e-05 5.6926 434 664.571 
968 0.0012 0.0012 0 2.41508e-05 2.41508e-05 -9.20973e-06 11.6781 1204.06 1500.46 
1008 0.0438 0.0438 0 0.00103296 0.00103296 -0.000200477 43.3142 5395.65 6798.12 
1048 0.049 0.049 0 0.000893569 0.000893569 -6.88618e-05 48.5914 5563.52 7391.67 
1088 0.0558 0.0558 0 0.000959786 0.000959786 0.000311916 54.0146 5639.97 7860.3 
1128 0.0414 0.0414 0 0.000520908 0.000520908 0.000188706 40.244 5387.81 6610.13 
1168 0.0532 0.0532 0 0.0011123 0.0011123 4.30388e-05 52.3881 5909.44 7769.19 
1208 0.047 0.047 0 0.00108275 0.00108275 -0.000109337 45.1316 6668.27 9167.72 
1248 0.0346 0.0346 0 0.000860584 0.000860584 -5.88317e-05 33.2321 4918.1 6689.63 
9 0.0182 0.0182 0 0.00158241 0.00158241 -0.000156447 179.166 30813.8 44486.4 
49 0.3968 0.3968 0 0.0398169 0.0398169 -0.000610249 398.169 51437.6 71428.5 
89 0.4426 0.4426 0 0.04362 0.04362 -0.000269168 436.2 52407.9 71086.5 
129 0.4438 0.4438 0 0.0438523 0.0438523 0.000147291 438.523 49175 65468.8 
169 0.4346 0.4346 0 0.0424071 0.0424071 0.000370711 424.071 49254.8 68848.3 
209 0.472 0.472 0 0.0461531 0.0461531 -2.28807e-05 461.531 46349.2 66814 
249 0.461 0.461 0 0.0453307 0.0453307 -0.000587416 453.307 57132.7 75524.6 
289 0.4054 0.4054 0 0.0409747 0.0409747 0.000349388 409.747 52797.3 72347.6 
329 0.007 0.007 0 0.000493501 0.000493501 -8.64967e-05 73.0007 15804.9 18280 
369 0.0406 0.0406 0 0.00115782 0.00115782 -0.000226922 39.9546 6517.08 8296.06 
409 0.0466 0.0466 0 0.00127102 0.00127102 0.000128256 44.1396 4843.8 6644.13 
449 0.0478 0.0478 0 0.000770404 0.000770404 -0.000116731 47.1663 6066.34 7923.87 
489 0.0442 0.0442 0 0.000443835 0.000443835 -1.06668e-05 41.9025 3675.16 5842.27 
529 0.0472 0.0472 0 0.000692455 0.000692455 -2.5635e-05 46.2113 4195.13 6869.63 
569 0.0428 0.0428 0 0.000800122 0.000800122 6.26533e-05 42.1451 4348.3 5686.1 
609 0.0414 0.0414 0 0.000888421 0.000888421 -0.000129071 41.0013 6352.96 6917.48 
649 0.0002 0.0002 0 -1.39769e-05 -1.39769e-05 -4.37889e-06 1.3845 -139.203 1380.03 
689 0.0052 0.0052 0 -0.000461453 -0.000461453 -6.9578e-06 4.61453 771.911 975.725 
729 0.009 0.009 0 -0.000785788 -0.000785788 -0.000114656 7.85788 269.306 567.161 
769 0.0092 0.0092 0 -0.000863718 -0.000863718 -4.21746e-05 8.63718 368.194 1139.25 
809 0.01 0.01 0 -0.000964049 -0.000964049 0.00012116 9.64049 1576.48 1845.47 
849 0.0098 0.0098 0 -0.000873502 -0.000873502 0.000147573 8.73502 164.89 353.7 
889 0.0086 0.0086 0 -0.000770814 -0.000770814 -5.32564e-05 7.70814 503.214 745.297 
929 0.0048 0.0048 0 -0.00045941 -0.00045941 1.32793e-05 4.5941 149.619 219.671 
969 0.0022 0.0022 0 8.01688e-05 8.01688e-05 -3.23482e-05 19.7678 2176.77 4339.98 
1009 0.0386 0.0386 0 0.000877701 0.000877701 0.000141608 36.2601 4059.71 5582.18 
1049 0.044 0.044 0 0.000452402 0.000452402 0.000150581 40.1753 4400.33 5311.33 
1089 0.0564 0.0564 0 0.00104945 0.00104945 -6.65637e-05 54.5666 5656 6980.07 
1129 0.0464 0.0464 0 0.000835062 0.000835062 0.000139347 46.2376 6016.79 8335.07 
1169 0.0388 0.0388 0 0.000942534 0.000942534 4.22563e-05 37.5438 6404.44 7660.02 
1209 0.0436 0.0436 0 0.00131694 0.00131694 -0.000179097 41.6194 8816.23 10899 
1249 0.037 0.037 0 0.00130866 0.00130866 -9.25681e-05 38.3385 7298.85 9924.46 
10 0.015 0.015 0 0.00162541 0.00162541 5.44669e-05 157.787 35812 48839.4 
50 0.4192 0.4192 0 0.0416026 0.0416026 0.000414692 416.026 52134.2 68371.5 
90 0.4384 0.4384 0 0.0424531 0.0424531 0.000119673 424.531 50791.4 68140.8 
130 0.4504 0.4504 0 0.0443963 0.0443963 0.000963749 443.963 53272.5 71196.6 
170 0.4422 0.4422 0 0.0441325 0.0441325 0.000305056 441.325 50002.4 68234.1 
210 0.4844 0.4844 0 0.0466294 0.0466294 -0.00069762 466.294 53357.8 72366.3 
250 0.4612 0.4612 0 0.0452609 0.0452609 0.000132716 452.609 51682.8 69378.1 
290 0.4166 0.4166 0 0.0413919 0.0413919 -0.00100234 413.919 52092.9 73288.7 
330 0.0056 0.0056 0 0.000448688 0.000448688 4.44947e-05 55.7043 19942 25057.4 
370 0.048 0.048 0 0.00158618 0.00158618 -9.41506e-05 46.4017 8187.47 10393.1 
410 0.0466 0.0466 0 0.00117082 0.00117082 -4.70059e-05 43.4631 6077.16 8214.02 
450 0.0452 0.0452 0 0.00087847 0.00087847 -0.000138717 43.7162 4847.03 7012.15 
490 0.0456 0.0456 0 0.000937045 0.000937045 5.02586e-05 46.4032 5620.47 7597.26 
530 0.047 0.047 0 0.000743699 0.000743699 -0.000141863 46.3947 4529.33 5969.66 
570 0.0466 0.0466 0 0.000910172 0.000910172 -0.000175617 43.3827 4978.39 6244.58 
610 0.0396 0.0396 0 0.000677044 0.000677044 -7.0541e-05 38.3568 3492.69 4927.33 
650 0.0004 0.0004 0 -2.43195e-05 -2.43195e-05 -9.46909e-08 2.71082 204.724 -178.654 
690 0.0066 0.0066 0 -0.000609869 -0.000609869 -3.77039e-06 6.09869 104.463 57.4967 
730 0.0102 0.0102 0 -0.000872348 -0.000872348 6.4035e-05 8.72348 883.689 1216.06 
770 0.0118 0.0118 0 -0.00109554 -0.00109554 8.42252e-05 10.9554 735.028 869.42 
810 0.0102 0.0102 0 -0.000959267 -0.000959267 2.33039e-05 9.59267 724.884 611.212 
850 0.0108 0.0108 0 -0.000987791 -0.000987791 -3.00306e-05 9.87791 1112.36 1335.6 
890 0.0092 0.0092 0 -0.000893138 -0.000893138 0.000124752 8.93138 143.459 689.769 
930 0.0044 0.0044 0 -0.000377708 -0.000377708 2.61263e-05 3.77708 646.54 522.301 
970 0.0086 0.0086 0 0.000278086 0.000278086 -2.6708e-05 34.3429 1257.49 1778.92 
1010 0.0488 0.0488 0 0.00100189 0.00100189 -0.000193984 48.2269 5283.43 6942.11 
1050 0.0482 0.0482 0 0.000898101 0.000898101 -3.23875e-05 45.6258 5467.47 7461.64 
1090 0.0492 0.0492 0 0.000991308 0.000991308 6.14869e-05 45.5207 4416.33 6388.26 
1130 0.0488 0.0488 0 0.000767335 0.000767335 0.000289011 49.0154 6994.76 8995.95 
1170 0.046 0.046 0 0.000959508 0.000959508 -0.000140505 46.6126 5680.73 7599.12 
1210 0.0478 0.0478 0 0.00112987 0.00112987 9.73592e-05 48.4188 7335.05 9830.7 
1250 0.0336 0.0336 0 0.00111329 0.00111329 0.00016482 34.5639 7583.77 10294.6 
11 0.0146 0.0146 0 0.00133573 0.00133573 -3.50465e-05 128.626 15388.9 19887.2 
51 0.4274 0.4274 0 0.0431563 0.0431563 -0.000704893 431.563 52667.3 72417.6 
91 0.4466 0.4466 0 0.0445679 0.0445679 -0.000452876 445.679 52162 72071.9 
131 0.4668 0.4668 0 0.0453185 0.0453185 0.000119771 453.185 53119.4 73622.7 
171 0.4684 0.4684 0 0.0458491 0.0458491 0.000479263 458.491 49302.4 67003.5 
211 0.4584 0.4584 0 0.0454869 0.0454869 0.000346846 454.869 49583 66561.1 
251 0.4248 0.4248 0 0.0427629 0.0427629 -0.000352671 427.629 56085.6 75119.2 
291 0.4194 0.4194 0 0.0418319 0.0418319 0.000476283 418.319 58621.9 80246.9 
331 0.0054 0.0054 0 0.000279099 0.000279099 5.55375e-06 54.2002 10368.5 14507.6 
371 0.0454 0.0454 0 0.0015421 0.0015421 -2.77829e-05 44.102 8344.02 10819.7 
411 0.0486 0.0486 0 0.00112943 0.00112943 5.03917e-05 48.2317 4935.67 7494.64 
451 0.051 0.051 0 0.00127782 0.00127782 -0.000148654 52.0349 6213.6 8732.13 
491 0.0448 0.0448 0 0.000784104 0.000784104 0.000209066 43.126 4646.66 6678.52 
531 0.0476 0.0476 0 0.000699371 0.000699371 -2.37296e-05 44.4759 5126.51 7069.11 
571 0.0492 0.0492 0 0.000838445 0.000838445 -0.000245589 46.3633 5158.27 7088.81 
611 0.0428 0.0428 0 0.00113741 0.00113741 -0.000273186 41.933 5389 6761.44 
651 0 0 0 0 0 0 0 0 0 
691 0.0074 0.0074 0 -0.000635688 -0.000635688 -2.8013e-05 6.35688 69.2624 318.333 
731 0.0112 0.0112 0 -0.00106209 -0.00106209 4.25964e-05 10.6209 474.236 628.098 
771 0.0102 0.0102 0 -0.00094382 -0.00094382 4.19124e-06 9.4382 517.137 697.296 
811 0.0124 0.0124 0 -0.00119654 -0.00119654 -1.26598e-05 11.9654 400.972 897.024 
851 0.0088 0.0088 0 -0.000832269 -0.000832269 6.42647e-05 8.32269 294.212 79.585 
891 0.0088 0.0088 0 -0.000738023 -0.000738023 -1.73956e-05 7.38023 79.7709 429.579 
931 0.0036 0.0036 0 -0.000298849 -0.000298849 5.64092e-06 2.98849 196.129 352.163 
971 0.0076 0.0076 0 0.000222174 0.000222174 -1.12417e-05 30.468 6009.78 6685.14 
1011 0.0388 0.0388 0 0.000590253 0.000590253 -0.000174896 35.7164 4605.41 6765.59 
1051 0.043 0.043 0 0.000896691 0.000896691 1.56973e-05 41.267 5051.38 6699.8 
1091 0.0478 0.0478 0 0.000734674 0.000734674 -1.62471e-05 45.6486 6258.43 8354.31 
1131 0.0456 0.0456 0 0.000735945 0.000735945 -0.000188708 43.8524 2979.67 4329.92 
1171 0.0466 0.0466 0 0.000974144 0.000974144 9.22525e-07 44.9665 7503.73 10583 
1211 0.05 0.05 0 0.00128247 0.00128247 -3.75067e-05 49.9507 7879.84 10058.3 
1251 0.0396 0.0396 0 0.00152396 0.00152396 -6.72934e-05 39.1636 9052.59 11429.3 
12 0.0194 0.0194 0 0.00197366 0.00197366 3.89589e-05 195.797 31432.9 44785.6 
52 0.4186 0.4186 0 0.0421933 0.0421933 0.000411005 421.933 57238.4 75935.7 
92 0.4508 0.4508 0 0.0442194 0.0442194 -6.02809e-05 442.194 48427.6 66164.5 
132 0.4762 0.4762 0 0.046935 0.046935 0.000250203 469.35 51015.8 71700.1 
172 0.4694 0.4694 0 0.0468761 0.0468761 -0.000139929 468.761 54211 72655 
212 0.45 0.45 0 0.0437941 0.0437941 -0.000442948 437.941 47970.7 64525.1 
252 0.416 0.416 0 0.0413331 0.0413331 0.000238441 413.331 53045.1 72884.3 
292 0.4224 0.4224 0 0.0417055 0.0417055 0.000361919 417.055 57706.5 78319.3 
332 0.0026 0.0026 0 0.000145154 0.000145154 -2.62508e-05 25.5759 5581.12 11003.8 
372 0.0404 0.0404 0 0.00123971 0.00123971 -0.000184596 39.9508 7074.88 9452.6 
412 0.0466 0.0466 0 0.00103678 0.00103678 -0.000229442 44.861 6083.98 8532.45 
452 0.0426 0.0426 0 0.000584022 0.000584022 -5.74994e-05 42.0086 6181.42 7927.05 
492 0.0478 0.0478 0 0.000808237 0.000808237 0.000111175 46.157 5307.71 7005.01 
532 0.0504 0.0504 0 0.00106359 0.00106359 -0.000193326 47.4707 6114.53 7669.6 
572 0.0466 0.0466 0 0.000835419 0.000835419 -0.000180085 44.2522 4606.15 5921.88 
612 0.0408 0.0408 0 0.000880659 0.000880659 -0.00018757 37.7412 3663.28 4875.75 
652 0.001 0.001 0 -7.69895e-05 -7.69895e-05 -5.25488e-07 3.07958 57.3607 25.2145 
692 0.0072 0.0072 0 -0.000578011 -0.000578011 2.75266e-05 5.78011 449.624 711.556 
732 0.007 0.007 0 -0.000690178 -0.000690178 -2.99372e-06 6.90178 363.75 448.418 
772 0.01 0.01 0 -0.000868641 -0.000868641 1.55378e-05 8.68641 319.195 705.901 
812 0.013 0.013 0 -0.00124692 -0.00124692 5.55861e-06 12.4692 -38.7807 272.422 
852 0.0142 0.0142 0 -0.0012504 -0.0012504 -0.000226731 12.504 315.41 513.775 
892 0.0074 0.0074 0 -0.000658774 -0.000658774 1.02186e-05 6.58774 732.202 961.597 