ITEM: TIMESTEP
25000
ITEM: NUMBER OF SURFS
1272
ITEM: BOX BOUNDS oo rr pp
0 0.3
0 0.3
-0.5 0.5
ITEM: SURFS id f_4[1] f_4[2] f_4[3] f_4[4] f_4[5] f_4[6] f_4[7] f_4[8] f_4[9] 
1 0.0008 0.0008 0 0.00202268 0.00202268 0.000292226 185.48 9329.84 32889.3 
41 0.0218 0.0218 0 0.054371 0.054371 0.00117478 543.71 72390.3 100324 
81 0.0176 0.0176 0 0.0444728 0.0444728 0.00226509 444.728 64551.6 84951.3 
121 0.023 0.023 0 0.0533113 0.0533113 -0.000656304 533.113 71989.1 90753.5 
161 0.0212 0.0212 0 0.0503019 0.0503019 0.00127009 503.019 80873 101715 
201 0.0184 0.0184 0 0.0459669 0.0459669 -0.00427921 459.669 57047.8 68121 
241 0.0188 0.0188 0 0.0497909 0.0497909 -0.00272257 497.909 17173.6 38837.8 
281 0.0178 0.0178 0 0.0429074 0.0429074 0.00206529 429.074 54261.5 67080.4 
321 0.0014 0.0014 0 0.00400838 0.00400838 -7.22177e-05 407.814 99011.8 147329 
361 0.0018 0.0018 0 0.000388408 0.000388408 -0.00064368 49.5477 3522.66 6705.26 
401 0.0018 0.0018 0 0.000869346 0.000869346 -0.000500614 36.5378 6202.89 15877 
441 0.0024 0.0024 0 0.0032319 0.0032319 0.00110021 62.0293 15788.8 19226.6 
481 0.0026 0.0026 0 0.00113741 0.00113741 -0.0010219 73.2275 14311.2 18606.8 
521 0.0036 0.0036 0 0.00215186 0.00215186 -0.00175867 84.9601 7488.17 11724.3 
561 0.0024 0.0024 0 0.00048311 0.00048311 -0.000505803 61.0715 7890.67 14707.1 
601 0.0012 0.0012 0 0.000554674 0.000554674 0.0013061 25.6697 2199.17 4920.56 
641 0 0 0 0 0 0 0 0 0 
681 0.0006 0.0006 0 -0.00143045 -0.00143045 -0.000532037 14.3045 243.266 -348.261 
721 0 0 0 0 0 0 0 0 0 
761 0 0 0 0 0 0 0 0 0 
801 0.0004 0.0004 0 -0.000585089 -0.000585089 -0.000271944 5.85089 -986.21 1105.99 
841 0.0004 0.0004 0 -0.000920929 -0.000920929 -0.00010939 9.20929 1875.35 1342.07 
881 0.0004 0.0004 0 -0.000627878 -0.000627878 0.000292697 6.27878 1241.94 823.674 
921 0 0 0 0 0 0 0 0 0 
961 0 0 0 0 0 0 0 0 0 
1001 0.0006 0.0006 0 -4.84947e-05 -4.84947e-05 0.000191296 13.0163 -656.308 -461.309 
1041 0.0008 0.0008 0 0.00094413 0.00094413 0.000453671 8.20583 2586.62 3438.05 
1081 0.0018 0.0018 0 -0.000368842 -0.000368842 -0.00102254 38.946 4399.5 5025.32 
1121 0.0016 0.0016 0 2.26675e-05 2.26675e-05 6.13647e-05 42.1699 3900.26 4134.54 
1161 0.0024 0.0024 0 0.000755711 0.000755711 -0.00125121 56.1189 9044.78 11581.6 
1201 0.0016 0.0016 0 0.000480313 0.000480313 -0.000481223 39.4488 10023.4 9295.79 
1241 0.0016 0.0016 0 0.00139682 0.00139682 -0.00103672 29.7973 11356.4 18037.4 
2 0.0008 0.0008 0 -6.96449e-05 -6.96449e-05 -2.83953e-05 197.092 8624.48 18313.4 
42 0.0162 0.0162 0 0.0381817 0.0381817 0.00222067 381.817 51146.6 72634.3 
82 0.0238 0.0238 0 0.0597206 0.0597206 0.00111886 597.206 81422.7 119154 
122 0.0184 0.0184 0 0.0481473 0.0481473 -0.00203739 481.473 56774.1 71982.1 
162 0.0234 0.0234 0 0.0594733 0.0594733 -6.47907e-05 594.733 57923.4 81461.2 
202 0.012 0.012 0 0.0294768 0.0294768 -0.000940541 294.768 43845.8 51905.6 
242 0.017 0.017 0 0.0426835 0.0426835 -0.00040068 426.835 63518.6 79671.8 
282 0.0152 0.0152 0 0.0361064 0.0361064 -0.00270779 361.064 51007.5 75300.4 
322 0.0004 0.0004 0 0.00116679 0.00116679 -0.000244952 122.272 12705.9 9528.44 
362 0.0012 0.0012 0 0.00148899 0.00148899 -0.000629249 33.096 2085.25 2574.48 
402 0.0016 0.0016 0 0.00236936 0.00236936 0.000137709 49.9531 7308.45 7558.44 
442 0.0022 0.0022 0 0.00164321 0.00164321 0.000424618 52.4293 9643.67 19971.3 
482 0.0018 0.0018 0 0.00215655 0.00215655 -0.001225 40.3448 11423.7 14591 
522 0.0014 0.0014 0 0.000154784 0.000154784 0.000832198 36.3885 2165.74 3661.81 
562 0.0028 0.0028 0 0.00010973 0.00010973 -0.00173101 64.2808 3505.86 2710.73 
602 0.0014 0.0014 0 0.000115972 0.000115972 0.0011711 38.941 11860 11549.4 
642 0 0 0 0 0 0 0 0 0 
682 0 0 0 0 0 0 0 0 0 
722 0.0002 0.0002 0 -0.000495508 -0.000495508 -6.58595e-05 4.95508 572.207 922.901 
762 0.0006 0.0006 0 -0.00113596 -0.00113596 0.000500288 11.3596 2839.6 7660.31 
802 0.0006 0.0006 0 -0.00148437 -0.00148437 0.000242498 14.8437 1931.48 3260.72 
842 0 0 0 0 0 0 0 0 0 
882 0 0 0 0 0 0 0 0 0 
922 0.0006 0.0006 0 -0.00166827 -0.00166827 0.000507643 16.6827 1260.67 1006.02 
962 0 0 0 0 0 0 0 0 0 
1002 0.001 0.001 0 0.0011983 0.0011983 0.00142422 22.7616 12592.3 16544.1 
1042 0.0018 0.0018 0 0.00117937 0.00117937 0.000204948 53.2925 4694.02 7743.42 
1082 0.0016 0.0016 0 0.000160899 0.000160899 7.74987e-05 35.2283 4227.02 5462.75 
1122 0.0016 0.0016 0 0.000215817 0.000215817 3.36304e-05 39.9762 2381.55 2062.98 
1162 0.0012 0.0012 0 -0.000263021 -0.000263021 0.000808287 34.9304 3166.44 3808.16 
1202 0.002 0.002 0 0.00150395 0.00150395 -0.000675591 48.5888 5073.82 4759.95 
1242 0.0018 0.0018 0 0.000840887 0.000840887 0.000990513 37.1715 10701.2 9275.89 
3 0 0 0 0 0 0 0 0 0 
43 0.0144 0.0144 0 0.0352578 0.0352578 0.00124231 352.578 53879.4 68736.2 
83 0.0208 0.0208 0 0.0470463 0.0470463 -1.5199e-05 470.463 69596.9 98173.5 
123 0.0158 0.0158 0 0.0432409 0.0432409 0.00261956 432.409 50839.7 64083.9 
163 0.0156 0.0156 0 0.0414807 0.0414807 0.000507843 414.807 64546.2 80252.2 
203 0.0162 0.0162 0 0.0428311 0.0428311 -7.46059e-05 428.311 53959.6 82080.5 
243 0.0146 0.0146 0 0.0371189 0.0371189 0.000191492 371.189 52908.5 74970.7 
283 0.0144 0.0144 0 0.0368432 0.0368432 0.00252555 368.432 46186.6 63989.6 
323 0.0006 0.0006 0 0.00150453 0.00150453 -0.000395414 120.707 32492.1 58784 
363 0.0024 0.0024 0 0.00164503 0.00164503 0.000228967 69.8841 14531 17868 
403 0.0014 0.0014 0 0.00117695 0.00117695 -0.000474504 29.1157 6569.73 7121.09 
443 0.0014 0.0014 0 -1.55192e-06 -1.55192e-06 0.000445156 33.9326 -376.633 3539.48 
483 0.0014 0.0014 0 0.00172701 0.00172701 -0.000666898 28.2945 3988.99 1798.62 
523 0.0032 0.0032 0 0.000989074 0.000989074 -0.000175269 83.0324 17940.1 26221.9 
563 0.0012 0.0012 0 0.000136984 0.000136984 -0.000289531 29.302 -657.683 -528.173 
603 0.0018 0.0018 0 0.00104033 0.00104033 0.00083896 44.8766 3865.3 6603.81 
643 0.0002 0.0002 0 -0.000201325 -0.000201325 0.000338019 50.3827 -3254.98 4630.99 
683 0 0 0 0 0 0 0 0 0 
723 0.0008 0.0008 0 -0.00143202 -0.00143202 0.000588568 14.3202 1539.9 1437.06 
763 0.0004 0.0004 0 -0.00162801 -0.00162801 0.000116723 16.2801 -1036 -174.149 
803 0.0006 0.0006 0 -0.00108961 -0.00108961 0.00124992 10.8961 2676.02 1536.27 
843 0.0004 0.0004 0 -0.00059898 -0.00059898 -5.10432e-05 5.9898 857.407 876.791 
883 0.0004 0.0004 0 -0.000948105 -0.000948105 0.000354414 9.48105 223.461 228.019 
923 0.0002 0.0002 0 -0.000502641 -0.000502641 -0.000296749 5.02641 -145.13 1379.69 
963 0 0 0 0 0 0 0 0 0 
1003 0.0022 0.0022 0 0.0013733 0.0013733 0.000131345 57.8525 3009.33 1145.57 
1043 0.0014 0.0014 0 0.000379544 0.000379544 -0.000398428 27.5652 3867.94 4831.41 
1083 0.003 0.003 0 -0.000503665 -0.000503665 0.000495724 74.8291 1559.75 4331.94 
1123 0.0026 0.0026 0 0.00133413 0.00133413 -0.00069333 64.2612 15514.6 20632.5 
1163 0.0018 0.0018 0 0.00145262 0.00145262 -0.000712697 51.6572 5532.17 7531.76 
1203 0.002 0.002 0 0.00182859 0.00182859 -0.000127367 48.0267 8763.52 8126.17 
1243 0.0008 0.0008 0 0.000373449 0.000373449 -0.000804238 13.9958 3821.85 4062.49 
4 0.0004 0.0004 0 0.000724078 0.000724078 0.000426875 112.467 10051.1 25417.3 
44 0.0124 0.0124 0 0.0293956 0.0293956 -0.00060204 293.956 40501.1 55411.6 
84 0.022 0.022 0 0.055893 0.055893 0.00146229 558.93 102096 127008 
124 0.0194 0.0194 0 0.0456675 0.0456675 -0.00194688 456.675 52873.7 68713.5 
164 0.0134 0.0134 0 0.0340118 0.0340118 4.21027e-05 340.118 38421.5 47288.8 
204 0.0154 0.0154 0 0.0373292 0.0373292 -0.00036256 373.292 35757.3 59764.2 
244 0.0156 0.0156 0 0.0366821 0.0366821 0.00332363 366.821 40046.5 57963.7 
284 0.0154 0.0154 0 0.0392928 0.0392928 -0.00104305 392.928 43817.6 56691.2 
324 0.0004 0.0004 0 0.00102065 0.00102065 0.000596515 69.8685 4098.37 27944.9 
364 0.0018 0.0018 0 0.00112305 0.00112305 0.00135964 58.3759 19366.1 24733.7 
404 0.0014 0.0014 0 0.00181389 0.00181389 -0.000896693 32.0427 13417.1 14138.3 
444 0.0008 0.0008 0 0.000493468 0.000493468 0.000250607 22.6783 -140.024 2273.08 
484 0.0028 0.0028 0 0.00200647 0.00200647 -0.000683404 68.3233 8975.65 10632.6 
524 0.0014 0.0014 0 0.00109229 0.00109229 0.000217191 28.4185 2636.81 2573.94 
564 0.0012 0.0012 0 0.00104861 0.00104861 -4.30287e-05 34.2201 9899.47 13574.6 
604 0.0022 0.0022 0 -0.000781702 -0.000781702 0.000418256 45.7073 3156.4 8286.88 
644 0 0 0 0 0 0 0 0 0 
684 0.0002 0.0002 0 -0.000868172 -0.000868172 -0.000115514 8.68172 -1358.35 -925.126 
724 0 0 0 0 0 0 0 0 0 
764 0.0002 0.0002 0 -0.000318038 -0.000318038 -0.000405039 3.18038 2443.38 2469.83 
804 0.0008 0.0008 0 -0.00255866 -0.00255866 0.00145852 25.5866 4822.54 4098.24 
844 0.0006 0.0006 0 -0.00155473 -0.00155473 0.000416538 15.5473 2029.45 645.411 
884 0.0002 0.0002 0 -0.000173006 -0.000173006 0.000118654 1.73006 145.929 525.973 
924 0.0002 0.0002 0 -0.000390434 -0.000390434 0.000100882 3.90434 -184.238 -136.028 
964 0 0 0 0 0 0 0 0 0 
1004 0.0014 0.0014 0 0.00136319 0.00136319 0.00105496 34.0218 6256.44 7975.1 
1044 0.0018 0.0018 0 0.00155256 0.00155256 0.000206979 39.921 8677.99 14027.5 
1084 0.002 0.002 0 -0.000634962 -0.000634962 -0.00111068 40.2838 4566.06 6727.24 
1124 0.002 0.002 0 0.00130918 0.00130918 0.000405027 55.335 6761.79 6096.5 
1164 0.0018 0.0018 0 0.00107558 0.00107558 -0.000815235 46.8335 3996.83 5187.49 
1204 0.0018 0.0018 0 0.000430029 0.000430029 0.00112544 40.2126 8153.84 15312.3 
1244 0.002 0.002 0 0.00235937 0.00235937 0.000319579 40.0785 17730.2 21062.3 
5 0.001 0.001 0 0.00232222 0.00232222 0.000215991 268.219 32136.6 109193 
45 0.0188 0.0188 0 0.0464729 0.0464729 -0.000478807 464.729 51022 72020 
85 0.0174 0.0174 0 0.0451463 0.0451463 0.000258278 451.463 60297.1 79830.6 
125 0.021 0.021 0 0.0504207 0.0504207 0.000312265 504.207 59213.3 78384.7 
165 0.018 0.018 0 0.0447162 0.0447162 0.000119392 447.162 63280.6 77456.2 
205 0.019 0.019 0 0.0471636 0.0471636 0.000122252 471.636 51165.7 71733.8 
245 0.0174 0.0174 0 0.0426229 0.0426229 0.00110113 426.229 30085.8 43366.3 
285 0.0174 0.0174 0 0.0412016 0.0412016 0.0021064 412.016 48673.9 68524.4 
325 0.001 0.001 0 0.00258925 0.00258925 0.000232319 238.75 -2058.67 49676.4 
365 0.0022 0.0022 0 0.00207297 0.00207297 0.000150564 56.2447 7437.25 9694.86 
405 0.0024 0.0024 0 0.00199516 0.00199516 -0.000503806 70.8571 16062.6 20797.2 
445 0.0006 0.0006 0 0.000418622 0.000418622 0.000404344 14.9777 1746.03 3006.82 
485 0.0036 0.0036 0 0.00182323 0.00182323 2.70616e-05 98.6412 5762.71 10080.9 
525 0.001 0.001 0 0.000523895 0.000523895 0.000681271 23.673 645.837 1290.26 
565 0.002 0.002 0 0.000619525 0.000619525 -0.000923864 57.6282 2470.43 1561.3 
605 0.0024 0.0024 0 0.000968948 0.000968948 0.000486284 66.0627 -416.309 -881.018 
645 0 0 0 0 0 0 0 0 0 
685 0.0004 0.0004 0 -0.000711267 -0.000711267 -0.00111136 7.11267 -1417.16 -1646.49 
725 0.0006 0.0006 0 -0.00163789 -0.00163789 3.33403e-05 16.3789 4147.07 6544.49 
765 0.0004 0.0004 0 -0.0011896 -0.0011896 -2.73538e-06 11.896 625.578 736.722 
805 0.0002 0.0002 0 -0.000383502 -0.000383502 0.000158872 3.83502 -79.7415 -149.808 
845 0.0002 0.0002 0 -0.000382243 -0.000382243 0.00022342 3.82243 437.041 212.22 
885 0.0004 0.0004 0 -0.00100197 -0.00100197 -5.71934e-05 10.0197 689.976 1847.04 
925 0.0002 0.0002 0 -0.00026651 -0.00026651 0 2.6651 0 0 
965 0 0 0 0 0 0 0 0 0 
1005 0.0018 0.0018 0 0.00134922 0.00134922 -4.81962e-05 41.7767 -339.778 2100.84 
1045 0.001 0.001 0 0.00070898 0.00070898 -0.000248351 28.9274 -1158.28 -1695.68 
1085 0.0038 0.0038 0 0.00173808 0.00173808 0.000455565 92.7007 -1418.18 5462.29 
1125 0.0022 0.0022 0 0.00224426 0.00224426 -8.04593e-05 51.5857 12809.1 15706.1 
1165 0.0024 0.0024 0 0.0031251 0.0031251 -0.00163906 46.4921 13366.1 18754.5 
1205 0.0022 0.0022 0 0.00225493 0.00225493 8.21138e-06 48.4105 8891.01 13495.5 
1245 0.0024 0.0024 0 0.00134239 0.00134239 0.000432833 61.1803 12634.8 20284.7 
6 0 0 0 0 0 0 0 0 0 
46 0.0144 0.0144 0 0.0363523 0.0363523 -0.00141297 363.523 41354.3 58107 
86 0.0112 0.0112 0 0.0282202 0.0282202 -0.000815053 282.202 44719 60827.8 
126 0.0112 0.0112 0 0.0258365 0.0258365 -0.000399992 258.365 36735.4 53206.3 
166 0.0186 0.0186 0 0.0413702 0.0413702 0.00336163 413.702 34540.3 53304 
206 0.0218 0.0218 0 0.0564284 0.0564284 -0.00249438 564.284 47842.3 71351.9 
246 0.0196 0.0196 0 0.0494717 0.0494717 0.00464255 494.717 51044.8 78085 
286 0.0144 0.0144 0 0.0384895 0.0384895 -0.00385134 384.895 80028.1 99691.8 
326 0.0006 0.0006 0 0.00095131 0.00095131 -0.000107987 147.337 27769.5 27944.2 
366 0.0012 0.0012 0 0.000726636 0.000726636 -0.000199792 37.2549 4582.57 11640.5 
406 0.0018 0.0018 0 0.00208943 0.00208943 0.000568549 53.2357 15234.4 16578.4 
446 0.0018 0.0018 0 0.00108684 0.00108684 0.000620169 34.5594 9150.82 12104.1 
486 0.0022 0.0022 0 0.00218317 0.00218317 0.000679922 50.7819 12232.7 19760.2 
526 0.0022 0.0022 0 -0.00127275 -0.00127275 -0.00061776 57.1728 5471.75 11863.3 
566 0.0026 0.0026 0 0.001224 0.001224 0.00177848 58.0522 -1374.18 73.4019 
606 0.0018 0.0018 0 0.00130869 0.00130869 -0.00115902 50.9267 4368.97 8315.98 
646 0 0 0 0 0 0 0 0 0 
686 0.0002 0.0002 0 -0.000308805 -0.000308805 0 3.08805 2.70834e-13 2.70834e-13 
726 0.0004 0.0004 0 -0.000880476 -0.000880476 0.000298078 8.80476 -508.439 -431.371 
766 0.0006 0.0006 0 -0.00136443 -0.00136443 -0.000127704 13.6443 4302.68 3760.72 
806 0 0 0 0 0 0 0 0 0 
846 0.0004 0.0004 0 -0.000985751 -0.000985751 -0.000360913 9.85751 -340.798 402.228 
886 0.0008 0.0008 0 -0.00168997 -0.00168997 -0.000177187 16.8997 -673.308 -700.237 
926 0.0002 0.0002 0 -0.00029616 -0.00029616 -0.000288341 2.9616 1344.54 1024.35 
966 0.0002 0.0002 0 0.000351521 0.000351521 -0.0003648 55.5263 28185.5 24984.5 
1006 0.002 0.002 0 -0.000256278 -0.000256278 0.00121135 52.9077 1553.71 1018.29 
1046 0.0022 0.0022 0 0.000408082 0.000408082 5.34369e-05 61.9414 3504.08 3739.52 
1086 0.0018 0.0018 0 0.00172661 0.00172661 -0.000410751 37.6227 4816.7 6568.25 
1126 0.001 0.001 0 0.000726557 0.000726557 0.00102567 20.0769 10993.9 10880.3 
1166 0.002 0.002 0 0.000840786 0.000840786 0.000906129 51.8365 8455.12 13822.5 
1206 0.0018 0.0018 0 0.00130931 0.00130931 0.000670142 45.6226 3039.69 8121.73 
1246 0.0016 0.0016 0 0.00191336 0.00191336 0.000459402 38.8732 3376.98 7619.75 
7 0.0006 0.0006 0 0.00124587 0.00124587 0.000627268 160.119 2943.33 52014 
47 0.0178 0.0178 0 0.0430634 0.0430634 -0.00181367 430.634 66845.4 83840.7 
87 0.0166 0.0166 0 0.0395533 0.0395533 -0.000520638 395.533 58259.1 79658.3 
127 0.0184 0.0184 0 0.0482802 0.0482802 -0.00292485 482.802 60157.9 73366.1 
167 0.023 0.023 0 0.0524585 0.0524585 0.000130454 524.585 69920 92602 
207 0.0244 0.0244 0 0.0601255 0.0601255 -0.000399073 601.255 45260 75628.2 
247 0.0128 0.0128 0 0.0323527 0.0323527 0.000716605 323.527 23104 44274.1 
287 0.0118 0.0118 0 0.028865 0.028865 0.000207183 288.65 43137.6 62935 
327 0.0004 0.0004 0 0.00143662 0.00143662 -0.000711677 140.105 18521.1 18382.7 
367 0.001 0.001 0 -0.00120948 -0.00120948 0.000379589 28.9398 6145.79 5514.87 
407 0.0024 0.0024 0 0.00381311 0.00381311 -0.000104753 54.7785 17908.2 20364.4 
447 0.0018 0.0018 0 0.000139645 0.000139645 -7.16765e-05 42.4391 5208.45 6403.28 
487 0.0018 0.0018 0 0.0030154 0.0030154 0.000486707 36.7812 18790.8 22407.3 
527 0.0012 0.0012 0 0.000270099 0.000270099 -0.000705647 30.9919 4956.89 2093.34 
567 0.0018 0.0018 0 -0.000706341 -0.000706341 0.000788478 45.8511 1033.35 5322.56 
607 0.0018 0.0018 0 0.00143732 0.00143732 0.000246033 36.7351 3767.39 1482.63 
647 0 0 0 0 0 0 0 0 0 
687 0.0004 0.0004 0 -0.000725141 -0.000725141 0.000167732 7.25141 -520.387 147.142 
727 0.0004 0.0004 0 -0.000942257 -0.000942257 -6.02117e-05 9.42257 903.133 1900.8 
767 0.0006 0.0006 0 -0.00104549 -0.00104549 9.90589e-05 10.4549 698.087 261.172 
807 0.0002 0.0002 0 -0.000592307 -0.000592307 0 5.92307 3.61112e-13 3.61112e-13 
847 0.0002 0.0002 0 -0.000235202 -0.000235202 -0.000481111 2.35202 481.923 2700.08 
887 0.0004 0.0004 0 -0.000955174 -0.000955174 0.000347426 9.55174 -3356.76 -3809.94 
927 0.0002 0.0002 0 -0.000192919 -0.000192919 0.000210257 1.92919 724.534 649.47 
967 0 0 0 0 0 0 0 0 0 
1007 0.0016 0.0016 0 0.000312465 0.000312465 0.00127219 38.3404 4258.36 2777.49 
1047 0.0018 0.0018 0 0.00139449 0.00139449 0.000271218 38.3498 4976.43 6955.88 
1087 0.0016 0.0016 0 0.000122987 0.000122987 -0.000662329 32.657 4673.48 2355.51 
1127 0.003 0.003 0 0.00168322 0.00168322 0.000262536 58.6008 10447.3 14879.6 
1167 0.0012 0.0012 0 0.00111036 0.00111036 0.000293914 32.4929 12821.1 13454.8 
1207 0.0026 0.0026 0 0.00011256 0.00011256 -0.000116828 62.648 6836.98 12112.3 
1247 0.0016 0.0016 0 0.0019807 0.0019807 -0.00037537 38.0702 9349.92 10533.9 
8 0.0002 0.0002 0 0.000315039 0.000315039 1.06104e-05 43.1198 1134.12 -4689.07 
48 0.0184 0.0184 0 0.0458065 0.0458065 -0.00050436 458.065 29554.9 55618.9 
88 0.0114 0.0114 0 0.0297555 0.0297555 0.00246895 297.555 24893.8 27914.4 
128 0.0186 0.0186 0 0.0454958 0.0454958 -0.000910618 454.958 54980 66043.6 
168 0.0214 0.0214 0 0.0535432 0.0535432 -0.00317086 535.432 75435.7 94258.7 
208 0.0222 0.0222 0 0.0541735 0.0541735 0.00146924 541.735 68951.9 89369.5 
248 0.011 0.011 0 0.0276022 0.0276022 0.000824566 276.022 23444.6 46191.9 
288 0.0134 0.0134 0 0.0347704 0.0347704 0.00293527 347.704 55797.8 63337.3 
328 0.0004 0.0004 0 0.000639966 0.000639966 0.000233515 96.9898 7595.09 13647.1 
368 0.0016 0.0016 0 0.00157326 0.00157326 0.00024847 47.0633 13044.7 18670.8 
408 0.0018 0.0018 0 0.000201994 0.000201994 -0.000758591 32.6116 1925.95 4485.48 
448 0.0028 0.0028 0 -0.000902504 -0.000902504 0.000118913 50.5904 14847.9 19101.7 
488 0.0016 0.0016 0 0.000489017 0.000489017 -0.000346556 44.3399 2044.25 4428.22 
528 0.0014 0.0014 0 0.000522604 0.000522604 3.37211e-05 31.7661 -1317.03 -222.987 
568 0.0006 0.0006 0 0.000184727 0.000184727 -0.00029563 15.3766 2203.64 1596.21 
608 0.0012 0.0012 0 0.000872523 0.000872523 -0.000240668 35.0553 8137.89 11855.2 
648 0 0 0 0 0 0 0 0 0 
688 0 0 0 0 0 0 0 0 0 
728 0.0002 0.0002 0 -0.000578977 -0.000578977 0.000239198 5.78977 -917.991 -980.969 
768 0.0008 0.0008 0 -0.00186859 -0.00186859 -0.000165159 18.6859 4059.08 5079.13 
808 0.0002 0.0002 0 -0.000764316 -0.000764316 0 7.64316 0 0 
848 0.0002 0.0002 0 -0.000399563 -0.000399563 -0.000167166 3.99563 881.363 1867.38 
888 0 0 0 0 0 0 0 0 0 
928 0.0002 0.0002 0 -0.000394156 -0.000394156 0.000236903 3.94156 216.021 -545.007 
968 0 0 0 0 0 0 0 0 0 
1008 0.0014 0.0014 0 0.00113472 0.00113472 -0.00034007 40.921 7566.02 7569.12 
1048 0.002 0.002 0 -0.000305391 -0.000305391 0.000959079 47.8601 -1979.61 -3237.51 
1088 0.0014 0.0014 0 0.000259934 0.000259934 0.00062712 30.271 808.2 2140.57 
1128 0.0022 0.0022 0 0.0011234 0.0011234 -0.000152748 48.7738 14041.5 16415.3 
1168 0.0028 0.0028 0 0.00107284 0.00107284 -0.000706608 69.8679 7019.25 6931.09 
1208 0.001 0.001 0 0.00158597 0.00158597 -0.00136907 24.931 11735.3 15043.8 
1248 0.0018 0.0018 0 0.00155954 0.00155954 0.00218831 37.9851 6679.04 12104 
9 0.001 0.001 0 0.00268617 0.00268617 0.000919631 313.596 27559.2 46190.4 
49 0.02 0.02 0 0.0483043 0.0483043 0.000289154 483.043 87752.3 99916.7 
89 0.0174 0.0174 0 0.0426609 0.0426609 0.00233541 426.609 50577 78299.3 
129 0.0192 0.0192 0 0.0417131 0.0417131 0.00133402 417.131 45359.9 65786.2 
169 0.017 0.017 0 0.0450639 0.0450639 -0.00400963 450.639 39007.2 44821.9 
209 0.0182 0.0182 0 0.0478014 0.0478014 0.00332579 478.014 50102.2 75264.7 
249 0.0128 0.0128 0 0.0337636 0.0337636 -0.00214714 337.636 62896.5 77702.2 
289 0.0114 0.0114 0 0.0283983 0.0283983 0.00128341 283.983 40164 57208 
329 0.0008 0.0008 0 0.00138267 0.00138267 -0.000477766 233.494 -1177.93 2254.57 
369 0.0028 0.0028 0 0.000718557 0.000718557 0.000412398 77.0388 11029.5 11136.7 
409 0.0024 0.0024 0 0.000344921 0.000344921 -0.00146412 57.4597 7091.79 8140.25 
449 0.002 0.002 0 0.00126696 0.00126696 -0.00113776 41.8536 7741.35 11498.4 
489 0.0024 0.0024 0 0.00181697 0.00181697 -0.000288759 51.9661 9032.77 13396.2 
529 0.0022 0.0022 0 0.00202393 0.00202393 0.000349501 49.2192 19287.1 20365.7 
569 0.0016 0.0016 0 0.000680896 0.000680896 0.000405312 42.9743 4571.86 4205.46 
609 0.0018 0.0018 0 0.000139703 0.000139703 0.00106189 59.292 9995.82 14259.7 
649 0 0 0 0 0 0 0 0 0 
689 0.0004 0.0004 0 -0.000476736 -0.000476736 -8.70111e-05 4.76736 -63.6501 -23.4429 
729 0.0002 0.0002 0 -0.000413932 -0.000413932 0.000215618 4.13932 -333.29 2430.05 
769 0.0006 0.0006 0 -0.0013439 -0.0013439 -1.19393e-05 13.439 507.437 -460.573 
809 0.0004 0.0004 0 -0.00101983 -0.00101983 0.000241458 10.1983 606.411 120.954 
849 0.0006 0.0006 0 -0.00186297 -0.00186297 -0.000212663 18.6297 827.806 37.9055 
889 0.0004 0.0004 0 -0.00101327 -0.00101327 -1.37838e-05 10.1327 2781.15 1626.21 
929 0.0002 0.0002 0 -0.000516116 -0.000516116 -5.77219e-05 5.16116 -856.38 -333.237 
969 0 0 0 0 0 0 0 0 0 
1009 0.0016 0.0016 0 0.00115337 0.00115337 -0.000225961 28.324 1981.93 420.288 
1049 0.001 0.001 0 0.00122792 0.00122792 -0.000194829 22.9192 4057.04 6990.39 
1089 0.0014 0.0014 0 0.000383745 0.000383745 0.000133086 31.8246 1415.71 2966.36 
1129 0.0012 0.0012 0 0.000977654 0.000977654 0.000586539 34.5455 8012.28 13981.4 
1169 0.0024 0.0024 0 0.000952181 0.000952181 -0.00165205 66.0798 13273.9 18326.2 
1209 0.0006 0.0006 0 0.00013931 0.00013931 -9.64577e-05 7.12035 -2519.29 -3565.63 
1249 0.0014 0.0014 0 0.000575536 0.000575536 -0.000307014 32.4465 6260.81 7867.89 
10 0.0008 0.0008 0 0.00189182 0.00189182 -0.000217534 202.797 5373.23 7712.69 
50 0.0102 0.0102 0 0.0262681 0.0262681 0.00264289 262.681 32541.9 50464.3 
90 0.0244 0.0244 0 0.0638857 0.0638857 -0.00337377 638.857 77778.2 112680 
130 0.0184 0.0184 0 0.0464164 0.0464164 0.00170607 464.164 47381.9 58190.7 
170 0.017 0.017 0 0.0398084 0.0398084 -0.00410369 398.084 41774.4 58780.3 
210 0.0156 0.0156 0 0.0385032 0.0385032 0.00443387 385.032 47560.6 76640.3 
250 0.0122 0.0122 0 0.0312267 0.0312267 0.0024696 312.267 40924.5 56521.8 
290 0.0136 0.0136 0 0.0386096 0.0386096 0.000721688 386.096 47490.8 69533.1 
330 0.0002 0.0002 0 0.00011153 0.00011153 -0.000169471 32.2552 -9956.11 -7957.11 
370 0.003 0.003 0 0.00243275 0.00243275 0.00161057 65.3254 14047 19869.9 
410 0.002 0.002 0 0.00092865 0.00092865 3.24454e-05 44.773 11413.3 14948.2 
450 0.003 0.003 0 0.000705825 0.000705825 -0.000654841 66.9464 5695.98 11352.8 
490 0.0024 0.0024 0 0.00137329 0.00137329 0.000126724 42.6805 623.8 -2606.87 
530 0.0016 0.0016 0 0.000790705 0.000790705 0.00104395 35.6196 3669.62 6242.5 
570 0.0016 0.0016 0 -0.000347614 -0.000347614 -0.000424868 37.3809 6700.38 7727.95 
610 0.0024 0.0024 0 0.00134019 0.00134019 5.5108e-05 62.5541 5867.91 5339.1 
650 0 0 0 0 0 0 0 0 0 
690 0.0002 0.0002 0 -0.000743493 -0.000743493 -0.000307365 7.43493 599.136 1298.29 
730 0.0004 0.0004 0 -0.000829004 -0.000829004 -0.000684896 8.29004 2608.63 2244.12 
770 0.0002 0.0002 0 -0.000683753 -0.000683753 -0.000344155 6.83753 2390.4 3094.07 
810 0.0006 0.0006 0 -0.00168831 -0.00168831 -0.000974907 16.8831 1285.94 2177.75 
850 0.0002 0.0002 0 -0.00065322 -0.00065322 -0.000122201 6.5322 1209.88 3065.96 
890 0.0008 0.0008 0 -0.00223709 -0.00223709 -0.0003363 22.3709 -653.78 167.453 
930 0.0002 0.0002 0 -0.000452622 -0.000452622 9.81119e-05 4.52622 -1740.41 -1362.11 
970 0.001 0.001 0 0.00123204 0.00123204 -0.000995818 105.236 18046.1 20878.4 
1010 0.0016 0.0016 0 0.00160655 0.00160655 0.00123018 35.5549 7974.76 10623.3 
1050 0.002 0.002 0 0.00139419 0.00139419 0.000401442 51.2094 4372.98 4441.63 
1090 0.0036 0.0036 0 0.00156866 0.00156866 0.000185508 80.7089 24321.4 30256.5 
1130 0.0022 0.0022 0 -1.62037e-05 -1.62037e-05 -7.72251e-06 62.6775 10229.2 10369.9 
1170 0.0032 0.0032 0 0.00143194 0.00143194 -0.00138524 71.5818 10944.3 15406.6 
1210 0.0018 0.0018 0 0.00260993 0.00260993 -0.000196062 57.2678 20439.5 26289.7 
1250 0.0018 0.0018 0 0.00192697 0.00192697 -0.000561906 42.1939 4687.82 7019.03 
11 0.0014 0.0014 0 0.00414678 0.00414678 -0.000323919 361.829 96692.4 65351.3 
51 0.0108 0.0108 0 0.027761 0.027761 -0.00234275 277.61 38272.9 61212.7 
91 0.0192 0.0192 0 0.0456723 0.0456723 0.00119123 456.723 62101.5 75756.1 
131 0.0192 0.0192 0 0.0449762 0.0449762 0.00238214 449.762 52562.8 66308.2 
171 0.0184 0.0184 0 0.048525 0.048525 -0.00051073 485.25 70522 87921.9 
211 0.0148 0.0148 0 0.0400175 0.0400175 -0.00235358 400.175 24653.1 54098.1 
251 0.0156 0.0156 0 0.0379163 0.0379163 0.000203207 379.163 31460.5 37566.5 
291 0.0172 0.0172 0 0.0455754 0.0455754 0.00112602 455.754 63141.4 84930.9 
331 0 0 0 0 0 0 0 0 0 
371 0.002 0.002 0 0.00173273 0.00173273 0.000631755 42.2206 8149.04 10574.3 
411 0.0012 0.0012 0 0.00163214 0.00163214 -0.00011288 32.3504 11118 18303.1 
451 0.0028 0.0028 0 0.00208461 0.00208461 0.000158484 63.5574 15518.9 16323.7 
491 0.0022 0.0022 0 0.00115365 0.00115365 0.000939311 53.1729 12542 14707.9 
531 0.0024 0.0024 0 0.00109963 0.00109963 -0.000471748 69.3066 12014 16602.4 
571 0.0018 0.0018 0 0.00261797 0.00261797 0.000311723 42.054 2930.48 8409.93 
611 0.0022 0.0022 0 0.00290114 0.00290114 1.63313e-05 57.7728 20926.7 23073 
651 0 0 0 0 0 0 0 0 0 
691 0.0006 0.0006 0 -0.000694863 -0.000694863 -0.000170508 6.94863 84.9326 -583.744 
731 0.0004 0.0004 0 -0.000658271 -0.000658271 -0.000173067 6.58271 65.2167 52.6074 
771 0.0006 0.0006 0 -0.00163999 -0.00163999 0.00015094 16.3999 3395.6 4587.3 
811 0.0008 0.0008 0 -0.00170594 -0.00170594 -0.000228746 17.0594 2661.93 4954.57 
851 0 0 0 0 0 0 0 0 0 
891 0.0002 0.0002 0 -0.000727514 -0.000727514 -0.000256564 7.27514 1908.44 2761.93 
931 0 0 0 0 0 0 0 0 0 
971 0 0 0 0 0 0 0 0 0 
1011 0.0018 0.0018 0 0.0022146 0.0022146 3.41945e-05 40.257 9501.11 10103.6 
1051 0.0018 0.0018 0 0.000687661 0.000687661 -0.000238479 57.8043 4340.48 3961.97 
1091 0.0026 0.0026 0 0.000209724 0.000209724 0.000247937 71.692 6494.76 7661.38 
1131 0.0018 0.0018 0 0.00102809 0.00102809 -0.000464731 47.6049 -1340.03 -1154.44 
1171 0.0028 0.0028 0 0.000204568 0.000204568 -0.000888414 67.5116 737.123 1609.39 
1211 0.0022 0.0022 0 0.000908386 0.000908386 0.00100347 38.914 -752.331 25.9535 
1251 0.001 0.001 0 0.000411686 0.000411686 0.00084796 19.95 3119.9 4001.99 
12 0.0002 0.0002 0 0.000652024 0.000652024 0.00025191 62.0008 17924.9 12043.7 
52 0.0158 0.0158 0 0.0392685 0.0392685 0.00164001 392.685 64424.3 84176 
92 0.0128 0.0128 0 0.0310517 0.0310517 -0.000124201 310.517 21006.3 38793.5 
132 0.0204 0.0204 0 0.0509852 0.0509852 -0.00373624 509.852 49474.1 60766 
172 0.0172 0.0172 0 0.0443603 0.0443603 0.000557946 443.603 46141 62853.3 
212 0.0152 0.0152 0 0.0400647 0.0400647 -0.00156835 400.647 54339.9 71148.7 
252 0.0184 0.0184 0 0.044351 0.044351 1.64623e-05 443.51 52174.6 79314.1 
292 0.0184 0.0184 0 0.0444302 0.0444302 -0.00182925 444.302 66207.8 104223 
332 0.0006 0.0006 0 0.00142188 0.00142188 0.000408813 136.518 113946 126976 
372 0.0008 0.0008 0 -0.000141105 -0.000141105 0.000142742 23.38 5338.86 5778.8 
412 0.0008 0.0008 0 0.000368056 0.000368056 -0.000120268 24.8959 -2406.19 -1582.99 
452 0.002 0.002 0 0.00134875 0.00134875 0.000672952 48.6477 3830.07 2442.77 
492 0.0008 0.0008 0 0.00067152 0.00067152 0.000161909 28.7058 6329.25 9736.11 
532 0.0016 0.0016 0 0.00168557 0.00168557 -0.0006231 43.3436 6022.38 8438.29 
572 0.0024 0.0024 0 0.000210695 0.000210695 -0.0016566 41.999 7292.24 14371.9 
612 0.0016 0.0016 0 0.000834724 0.000834724 0.00118379 34.5643 5852.61 4506.5 
652 0 0 0 0 0 0 0 0 0 
692 0.0004 0.0004 0 -0.00112305 -0.00112305 0.000205493 11.2305 896.911 664.114 
732 0.0002 0.0002 0 -0.000696986 -0.000696986 -3.41296e-05 6.96986 2155.75 2320.53 
772 0.0004 0.0004 0 -0.000981688 -0.000981688 -0.000175477 9.81688 -690.773 -442.482 
812 0.0006 0.0006 0 -0.00144481 -0.00144481 -0.000260759 14.4481 316.626 251.358 
852 0.0006 0.0006 0 -0.00147569 -0.00147569 0.000147679 14.7569 5537.77 5849.93 
892 0.0004 0.0004 0 -0.000921566 -0.000921566 0.000247116 9.21566 1415.81 988.898 
932 0.0002 0.0002 0 -0.000527989 -0.000527989 0.000426127 5.27989 834.549 2099.9 
972 0.001 0.001 0 0.000780671 0.000780671 -5.00575e-05 43.4478 6780.18 10433.3 
1012 0.0016 0.0016 0 0.000685229 0.000685229 -0.000575256 56.3958 1620.02 5584.62 
1052 0.003 0.003 0 0.00150435 0.00150435 0.000630305 76.3057 10888.1 22193.6 
1092 0.0012 0.0012 0 0.000384427 0.000384427 0.000213359 24.6292 1581.9 -2406.04 
1132 0.0008 0.0008 0 0.000761467 0.000761467 0.000168782 22.0702 -482.798 19.6983 
1172 0.0034 0.0034 0 0.00144004 0.00144004 0.000505146 82.0173 12767.9 18477.2 
1212 0.0012 0.0012 0 0.0005463 0.0005463 -0.000853718 30.725 4798.06 7537.53 
1252 0.0018 0.0018 0 0.000817249 0.000817249 -2.7865e-05 38.5267 6219.72 10879.3 
13 0.0004 0.0004 0 0.000990727 0.000990727 -0.000186748 101.551 41380.3 43971.7 
53 0.0148 0.0148 0 0.0376869 0.0376869 0.00119523 376.869 40970.5 61272.5 
93 0.0244 0.0244 0 0.0668499 0.0668499 0.00141128 668.499 83548.2 103018 
133 0.02 0.02 0 0.0465532 0.0465532 -0.000409629 465.532 42762.5 65168.2 
173 0.018 0.018 0 0.0432015 0.0432015 -0.00139608 432.015 31866.6 49615.9 
213 0.0174 0.0174 0 0.0421662 0.0421662 0.000143333 421.662 56817.6 69428.8 
253 0.0176 0.0176 0 0.045721 0.045721 0.00140523 457.21 39300.1 51824.9 
293 0.0198 0.0198 0 0.0521492 0.0521492 0.000417925 521.492 75837.4 86520 
333 0.0002 0.0002 0 0.000577115 0.000577115 0.000285114 37.852 -9904.45 -3807.08 
373 0.0024 0.0024 0 0.00234373 0.00234373 -0.000348124 47.1789 11861 16772.4 
413 0.002 0.002 0 0.00102621 0.00102621 -2.40059e-05 62.3474 4659.18 4279.54 
453 0.0018 0.0018 0 0.00153176 0.00153176 -4.76545e-05 43.4499 3319.24 5933.22 
493 0.0014 0.0014 0 0.000332212 0.000332212 -0.000981857 25.8392 2808.16 3132.12 
533 0.001 0.001 0 0.00165426 0.00165426 0.000324345 28.5033 9478.8 10050.1 
573 0.001 0.001 0 0.000717588 0.000717588 -0.000544702 20.6622 2234.47 1141.58 
613 0.0014 0.0014 0 0.00141232 0.00141232 0.000373782 36.9414 10744.5 10796.5 
653 0 0 0 0 0 0 0 0 0 
693 0.0002 0.0002 0 -0.000117078 -0.000117078 0 1.17078 4.5139e-14 4.5139e-14 
733 0 0 0 0 0 0 0 0 0 
773 0 0 0 0 0 0 0 0 0 