ITEM: TIMESTEP
25000
ITEM: NUMBER OF SURFS
1272
ITEM: BOX BOUNDS oo rr pp
0 0.3
0 0.3
-0.5 0.5
ITEM: SURFS id f_4[1] f_4[2] f_4[3] f_4[4] f_4[5] f_4[6] f_4[7] f_4[8] f_4[9] 
1 0.0108 0.0108 0 3.13018e-05 3.13018e-05 -5.38726e-07 5.9391 1658.95 2212.86 
21 0.6822 0.6822 0 0.00405508 0.00405508 1.83023e-05 40.5508 10905.9 14852 
41 0.7688 0.7688 0 0.00421263 0.00421263 -4.03149e-05 42.1263 8809.89 12245.3 
61 0.7872 0.7872 0 0.00424277 0.00424277 -8.17835e-05 42.4277 8175.02 11340.8 
81 0.8008 0.8008 0 0.00426817 0.00426817 -7.11612e-05 42.6817 7928.27 10978.3 
101 0.8382 0.8382 0 0.00440509 0.00440509 6.55357e-05 44.0509 7699.97 10987.4 
121 0.8352 0.8352 0 0.0043936 0.0043936 -6.48136e-05 43.936 7612.27 10637.9 
141 0.8532 0.8532 0 0.00453642 0.00453642 -3.16021e-05 45.3642 7292.15 10552.2 
161 0.8588 0.8588 0 0.0045109 0.0045109 1.72498e-05 45.109 7364.11 10336.6 
181 0.8386 0.8386 0 0.00440055 0.00440055 -5.13359e-06 44.0055 7540.78 10464.9 
201 0.8478 0.8478 0 0.00445087 0.00445087 4.08977e-05 44.5087 7142 10343.2 
221 0.8236 0.8236 0 0.00430937 0.00430937 -7.72302e-05 43.0937 7382.47 10298.8 
241 0.8608 0.8608 0 0.0045437 0.0045437 4.23938e-05 45.437 7856.96 11125.9 
261 0.796 0.796 0 0.00430394 0.00430394 -1.00909e-05 43.0394 8203.19 11255.7 
281 0.7858 0.7858 0 0.00427849 0.00427849 -3.14762e-05 42.7849 8224.13 11204.8 
301 0.7358 0.7358 0 0.00417162 0.00417162 -1.94314e-05 41.7162 9875.77 13583.8 
321 0.042 0.042 0 0.000270396 0.000270396 7.20251e-06 26.491 8398.81 11454 
341 0.0958 0.0958 0 0.000221149 0.000221149 -4.20193e-06 4.60563 1530.23 2276.3 
361 0.108 0.108 0 0.000250244 0.000250244 3.20416e-05 5.63684 1839.94 2433.8 
381 0.0936 0.0936 0 0.000221865 0.000221865 -7.85564e-06 4.85668 1399.18 2037.06 
401 0.0952 0.0952 0 0.000214199 0.000214199 2.43082e-06 5.0205 1653.72 2297.81 
421 0.0978 0.0978 0 0.000217486 0.000217486 -1.36231e-06 5.20517 1633.84 2201.7 
441 0.0946 0.0946 0 0.000206433 0.000206433 -8.62625e-07 5.0879 1623.8 2231.43 
461 0.0934 0.0934 0 0.000227688 0.000227688 1.55515e-05 5.07117 1676.43 2314.66 
481 0.093 0.093 0 0.000216164 0.000216164 -1.17918e-06 5.09469 1639.62 2109.41 
501 0.0858 0.0858 0 0.000177611 0.000177611 1.4529e-05 4.44033 1367.71 1814.43 
521 0.0932 0.0932 0 0.000215542 0.000215542 -2.07879e-05 4.93748 1634.33 2147.97 
541 0.0814 0.0814 0 0.000177265 0.000177265 5.02376e-06 4.3413 1211.98 1675.73 
561 0.0848 0.0848 0 0.000207477 0.000207477 -3.40265e-06 4.51292 1243.39 1692.99 
581 0.0788 0.0788 0 0.00018803 0.00018803 -1.16046e-06 4.02449 1243.97 1666.71 
601 0.0766 0.0766 0 0.000208712 0.000208712 7.55318e-06 4.16698 1462.27 1901.54 
621 0.0634 0.0634 0 0.000189408 0.000189408 6.01065e-06 3.29559 1189.47 1605.49 
641 0.002 0.002 0 -9.9722e-07 -9.9722e-07 -1.37504e-06 0.956782 404.151 417.033 
661 0.0032 0.0032 0 -1.40087e-05 -1.40087e-05 -2.58178e-06 0.140087 10.1495 52.5303 
681 0.0018 0.0018 0 -7.07421e-06 -7.07421e-06 2.48386e-08 0.0707421 27.3549 37.5535 
701 0.0026 0.0026 0 -1.15515e-05 -1.15515e-05 -7.47386e-07 0.115515 10.1992 15.9461 
721 0.0028 0.0028 0 -1.24724e-05 -1.24724e-05 -6.71847e-07 0.124724 28.1584 37.0489 
741 0.0034 0.0034 0 -1.7617e-05 -1.7617e-05 2.64666e-06 0.17617 15.5043 28.283 
761 0.0046 0.0046 0 -2.10752e-05 -2.10752e-05 1.21696e-06 0.210752 36.1835 89.252 
781 0.0028 0.0028 0 -1.0313e-05 -1.0313e-05 1.21453e-07 0.10313 25.2902 26.2223 
801 0.0042 0.0042 0 -1.89631e-05 -1.89631e-05 1.90968e-06 0.189631 11.4619 13.746 
821 0.0046 0.0046 0 -1.66561e-05 -1.66561e-05 3.47057e-06 0.166561 22.2288 47.3644 
841 0.0018 0.0018 0 -8.78755e-06 -8.78755e-06 2.85332e-06 0.0878755 17.2123 31.6893 
861 0.0032 0.0032 0 -1.58724e-05 -1.58724e-05 -2.79516e-07 0.158724 24.9309 46.1285 
881 0.0032 0.0032 0 -1.34117e-05 -1.34117e-05 -6.16308e-07 0.134117 40.6573 44.1819 
901 0.005 0.005 0 -2.39989e-05 -2.39989e-05 -8.34689e-07 0.239989 36.0883 54.6752 
921 0.0026 0.0026 0 -1.01552e-05 -1.01552e-05 -2.62787e-06 0.101552 1.52574 0.1539 
941 0.0032 0.0032 0 -1.32082e-05 -1.32082e-05 -3.78604e-07 0.132082 31.5052 43.7093 
961 0.0006 0.0006 0 -1.40186e-06 -1.40186e-06 1.90923e-07 0.220887 17.3451 36.427 
981 0.0692 0.0692 0 0.000168668 0.000168668 1.20129e-05 3.67014 1105.42 1464.13 
1001 0.069 0.069 0 0.000149893 0.000149893 -1.09469e-05 3.69744 1058.25 1385.93 
1021 0.0836 0.0836 0 0.000191802 0.000191802 -1.1021e-05 4.34916 1176.91 1570.01 
1041 0.0836 0.0836 0 0.000210725 0.000210725 -1.32514e-05 4.47037 1478.66 1913.95 
1061 0.0828 0.0828 0 0.000204037 0.000204037 -8.8251e-06 4.31617 1328.6 1731.87 
1081 0.0858 0.0858 0 0.000171863 0.000171863 -2.36394e-05 4.39046 1331.21 1760.25 
1101 0.0876 0.0876 0 0.000190678 0.000190678 1.39327e-05 4.69059 1378.95 1823.6 
1121 0.0906 0.0906 0 0.000169576 0.000169576 -9.94161e-06 4.72163 1189.48 1647.65 
1141 0.0932 0.0932 0 0.000196864 0.000196864 -1.6195e-05 4.80288 1437.02 1968.17 
1161 0.0858 0.0858 0 0.000169388 0.000169388 -1.06617e-05 4.55492 1287.97 1753.36 
1181 0.0944 0.0944 0 0.000217147 0.000217147 -1.37096e-05 5.01334 1537.28 2047.77 
1201 0.0988 0.0988 0 0.000229985 0.000229985 -5.6247e-06 5.07439 1563.42 2337.44 
1221 0.1 0.1 0 0.00022649 0.00022649 5.62763e-06 5.22803 1616.92 2218.95 
1241 0.0954 0.0954 0 0.000198672 0.000198672 -2.311e-06 4.94234 1478.81 2160.23 
1261 0.105 0.105 0 0.000240522 0.000240522 2.71948e-05 5.28229 1714.65 2450.25 
2 0.0152 0.0152 0 4.889e-05 4.889e-05 -2.39544e-07 7.59311 1779.09 2732.09 
22 0.673 0.673 0 0.00396785 0.00396785 4.37341e-05 39.6785 10114.1 13607.8 
42 0.7402 0.7402 0 0.0041026 0.0041026 -6.53781e-05 41.026 8520.35 12045.6 
62 0.8016 0.8016 0 0.00434631 0.00434631 -1.73877e-05 43.4631 8574.09 11993.2 
82 0.82 0.82 0 0.00439518 0.00439518 -8.59584e-05 43.9518 7776.13 10795.7 
102 0.8566 0.8566 0 0.00448332 0.00448332 -4.73471e-06 44.8332 7873.95 11269.1 
122 0.844 0.844 0 0.00447428 0.00447428 -4.40631e-05 44.7428 7643.19 10812.8 
142 0.8796 0.8796 0 0.00459409 0.00459409 -5.17619e-05 45.9409 7419.24 10964.5 
162 0.8616 0.8616 0 0.00452913 0.00452913 1.37289e-05 45.2913 7649.8 10887.9 
182 0.854 0.854 0 0.00448936 0.00448936 3.30864e-05 44.8936 7546.97 10616.1 
202 0.8396 0.8396 0 0.00444223 0.00444223 -1.35511e-06 44.4223 7481.26 10538 
222 0.834 0.834 0 0.00440967 0.00440967 -0.000103038 44.0967 7253.06 10386.4 
242 0.8262 0.8262 0 0.00437941 0.00437941 -2.54519e-05 43.7941 7750.84 10842.6 
262 0.805 0.805 0 0.00434583 0.00434583 -3.26948e-05 43.4583 8078.1 11685 
282 0.78 0.78 0 0.00420937 0.00420937 1.3647e-05 42.0937 8397.95 11694.1 
302 0.72 0.72 0 0.00405419 0.00405419 -5.42024e-05 40.5419 9182.7 12588.6 
322 0.0378 0.0378 0 0.000228861 0.000228861 2.7324e-06 23.3321 7008.11 9850.07 
342 0.1002 0.1002 0 0.000233797 0.000233797 -1.46275e-05 5.07184 1658.46 2425.02 
362 0.097 0.097 0 0.000230799 0.000230799 -1.98036e-05 4.87216 1627.13 2250.48 
382 0.0988 0.0988 0 0.000201799 0.000201799 -4.45015e-06 5.18546 1723.24 2320.41 
402 0.0966 0.0966 0 0.00020565 0.00020565 -4.42152e-06 4.89535 1725.88 2334.6 
422 0.086 0.086 0 0.000174043 0.000174043 -2.77536e-06 4.62139 1212.03 1719.86 
442 0.0992 0.0992 0 0.000215681 0.000215681 -1.72047e-06 5.29072 1625.37 2224.42 
462 0.0922 0.0922 0 0.000189472 0.000189472 2.62803e-06 4.87016 1558.58 2085.49 
482 0.0892 0.0892 0 0.000211316 0.000211316 -4.51656e-06 4.78241 1591.81 2011.68 
502 0.089 0.089 0 0.000191237 0.000191237 9.43665e-07 4.75373 1342.33 1922.98 
522 0.084 0.084 0 0.000193742 0.000193742 1.68493e-05 4.34224 1451.33 1944.71 
542 0.0878 0.0878 0 0.000216682 0.000216682 -1.10147e-05 4.67996 1505.16 1986.4 
562 0.0776 0.0776 0 0.000178805 0.000178805 -6.56122e-06 4.11641 1246.33 1705.99 
582 0.0776 0.0776 0 0.000201743 0.000201743 -1.00219e-05 4.22504 1401.26 1752.03 
602 0.075 0.075 0 0.000189298 0.000189298 3.10087e-06 3.90184 1116.84 1450.6 
622 0.0704 0.0704 0 0.000193822 0.000193822 6.84708e-06 3.86994 1241.7 1645.08 
642 0.002 0.002 0 -1.90923e-06 -1.90923e-06 -1.06166e-06 0.952765 198.34 244.473 
662 0.0028 0.0028 0 -8.87601e-06 -8.87601e-06 -1.95478e-06 0.0887601 13.0786 37.5715 
682 0.0032 0.0032 0 -1.5226e-05 -1.5226e-05 3.52318e-06 0.15226 27.8645 40.7001 
702 0.002 0.002 0 -6.71527e-06 -6.71527e-06 -1.92664e-06 0.0671527 1.46428 10.7773 
722 0.0036 0.0036 0 -1.5988e-05 -1.5988e-05 1.91503e-06 0.15988 35.4845 59.0861 
742 0.003 0.003 0 -1.265e-05 -1.265e-05 -3.75534e-06 0.1265 27.6324 48.0773 
762 0.0022 0.0022 0 -1.09723e-05 -1.09723e-05 7.22055e-07 0.109723 6.61948 19.6187 
782 0.0034 0.0034 0 -1.22869e-05 -1.22869e-05 -4.6658e-08 0.122869 4.59091 25.831 
802 0.0036 0.0036 0 -1.83143e-05 -1.83143e-05 -1.41279e-07 0.183143 9.01125 31.7282 
822 0.004 0.004 0 -1.90883e-05 -1.90883e-05 6.87719e-07 0.190883 30.4519 47.6011 
842 0.0028 0.0028 0 -1.2488e-05 -1.2488e-05 1.3793e-06 0.12488 7.02678 34.5397 
862 0.0034 0.0034 0 -1.48291e-05 -1.48291e-05 1.32511e-07 0.148291 11.2226 22.1019 
882 0.0032 0.0032 0 -1.22857e-05 -1.22857e-05 -1.6873e-06 0.122857 5.46136 18.3942 
902 0.0024 0.0024 0 -1.06049e-05 -1.06049e-05 2.40409e-06 0.106049 11.8075 34.3423 
922 0.0018 0.0018 0 -7.30038e-06 -7.30038e-06 1.40819e-08 0.0730038 7.38124 22.8717 
942 0.0014 0.0014 0 -6.39213e-06 -6.39213e-06 1.56786e-06 0.0639213 17.5804 22.3094 
962 0.0008 0.0008 0 -3.06961e-08 -3.06961e-08 1.65768e-06 0.254331 114.899 128.574 
982 0.069 0.069 0 0.000200304 0.000200304 1.29384e-05 3.66893 1307.51 1654.18 
1002 0.0748 0.0748 0 0.000197457 0.000197457 -2.07494e-05 3.92012 1306.26 1687.52 
1022 0.071 0.071 0 0.000168758 0.000168758 8.71213e-06 3.71539 1127.67 1500.79 
1042 0.0798 0.0798 0 0.000194358 0.000194358 -1.69528e-05 4.23896 1383.69 1797.83 
1062 0.0828 0.0828 0 0.000194488 0.000194488 1.01437e-05 4.39494 1441.56 1932.05 
1082 0.0884 0.0884 0 0.000184913 0.000184913 -1.13873e-05 4.68702 1381.6 1852.95 
1102 0.0934 0.0934 0 0.000209436 0.000209436 5.72985e-06 4.7967 1373.81 1965.53 
1122 0.0872 0.0872 0 0.000204304 0.000204304 8.85637e-06 4.59974 1449.6 1896.36 
1142 0.0912 0.0912 0 0.000200073 0.000200073 4.59126e-06 4.79906 1410.23 1881.91 
1162 0.0918 0.0918 0 0.000200946 0.000200946 5.29873e-06 4.76028 1538.98 2042.22 
1182 0.0922 0.0922 0 0.000178684 0.000178684 8.60406e-06 4.79689 1533.31 2108.6 
1202 0.0928 0.0928 0 0.000228082 0.000228082 2.52809e-05 4.95271 1732.93 2358.34 
1222 0.0984 0.0984 0 0.000199394 0.000199394 -1.51521e-06 4.99901 1423.78 2066.71 
1242 0.1026 0.1026 0 0.00022835 0.00022835 -2.58354e-05 5.16236 1877.73 2653.35 
1262 0.0886 0.0886 0 0.000204814 0.000204814 3.14882e-05 4.54915 1567.79 2237.39 
3 0.0164 0.0164 0 6.91788e-05 6.91788e-05 9.05463e-06 8.90984 2622.63 4045.84 
23 0.7018 0.7018 0 0.00407704 0.00407704 2.26397e-06 40.7704 10103.9 13522.7 
43 0.73 0.73 0 0.00406781 0.00406781 -1.79098e-05 40.6781 8801.35 12353.8 
63 0.7982 0.7982 0 0.0042982 0.0042982 1.47215e-05 42.982 8575.36 11592.7 
83 0.814 0.814 0 0.00437304 0.00437304 8.45894e-06 43.7304 7538.87 10711.8 
103 0.8332 0.8332 0 0.00438838 0.00438838 4.09709e-05 43.8838 7712.35 10593.1 
123 0.8336 0.8336 0 0.00444677 0.00444677 -5.84131e-05 44.4677 7044.68 10026.5 
143 0.8624 0.8624 0 0.00456708 0.00456708 7.26986e-06 45.6708 7528.76 10724.6 
163 0.839 0.839 0 0.0044666 0.0044666 1.14621e-06 44.666 7404.7 10404.2 
183 0.8462 0.8462 0 0.00445949 0.00445949 -2.42608e-05 44.5949 7538.25 10698.6 
203 0.8392 0.8392 0 0.00439279 0.00439279 -5.5045e-05 43.9279 7788.26 10813.2 
223 0.8366 0.8366 0 0.00438237 0.00438237 4.98414e-05 43.8237 7526.8 10623.2 
243 0.8146 0.8146 0 0.0042698 0.0042698 5.76746e-05 42.698 7255.78 10323.4 
263 0.7914 0.7914 0 0.00424049 0.00424049 8.2029e-06 42.4049 7894.27 11239.3 
283 0.7892 0.7892 0 0.00437924 0.00437924 -5.1901e-05 43.7924 8612.36 11873.8 
303 0.7234 0.7234 0 0.00410014 0.00410014 4.63485e-06 41.0014 9572.51 13297.6 
323 0.0354 0.0354 0 0.000215252 0.000215252 3.08805e-06 21.2413 6885.44 9184 
343 0.0964 0.0964 0 0.000225086 0.000225086 -1.46632e-05 4.84823 1573.74 2270.72 
363 0.0986 0.0986 0 0.000214581 0.000214581 -4.48503e-06 5.08266 1521.44 2207.44 
383 0.0934 0.0934 0 0.000217311 0.000217311 7.51647e-06 4.86481 1462.39 2138.81 
403 0.1026 0.1026 0 0.000253766 0.000253766 -3.67473e-06 5.32534 1768.58 2429.79 
423 0.0906 0.0906 0 0.000208492 0.000208492 6.47098e-06 4.74507 1428.27 1876.27 
443 0.0968 0.0968 0 0.0001997 0.0001997 9.99605e-06 5.01508 1551.61 2023.65 
463 0.0944 0.0944 0 0.000209139 0.000209139 1.34903e-05 4.98685 1592.41 2210.91 
483 0.0854 0.0854 0 0.000201138 0.000201138 -3.06064e-06 4.52475 1443.62 1908.37 
503 0.0904 0.0904 0 0.000193363 0.000193363 -7.9781e-06 4.65628 1404.34 1860.23 
523 0.0866 0.0866 0 0.000153326 0.000153326 -1.70382e-06 4.5642 1157.59 1620.51 
543 0.0922 0.0922 0 0.000217203 0.000217203 2.3967e-06 4.86113 1465.46 1959.81 
563 0.0806 0.0806 0 0.000171033 0.000171033 1.94834e-05 4.27837 1152.43 1655.73 
583 0.0826 0.0826 0 0.000220088 0.000220088 -1.29735e-05 4.33298 1462.6 1906.36 
603 0.0674 0.0674 0 0.000161951 0.000161951 -1.14268e-05 3.50961 1047.26 1415.49 
623 0.071 0.071 0 0.000181169 0.000181169 -6.74171e-06 3.8679 1167.32 1584.76 
643 0.0022 0.0022 0 -1.97876e-06 -1.97876e-06 1.40515e-06 0.853949 326.129 445.998 
663 0.0026 0.0026 0 -9.48541e-06 -9.48541e-06 -1.52427e-06 0.0948541 9.82418 25.2254 
683 0.0016 0.0016 0 -5.27705e-06 -5.27705e-06 -1.12447e-06 0.0527705 8.42635 26.2168 
703 0.003 0.003 0 -1.20852e-05 -1.20852e-05 2.93136e-06 0.120852 35.9667 48.2637 
723 0.004 0.004 0 -1.63739e-05 -1.63739e-05 -3.88534e-06 0.163739 6.38481 22.567 
743 0.0036 0.0036 0 -1.55698e-05 -1.55698e-05 -9.42146e-07 0.155698 5.42348 19.6043 
763 0.0048 0.0048 0 -1.9625e-05 -1.9625e-05 7.96925e-07 0.19625 24.6895 26.4176 
783 0.0026 0.0026 0 -1.22755e-05 -1.22755e-05 -5.47235e-07 0.122755 0.668806 28.7201 
803 0.0032 0.0032 0 -1.18227e-05 -1.18227e-05 -4.21097e-06 0.118227 18.7914 27.9348 
823 0.0036 0.0036 0 -1.48655e-05 -1.48655e-05 -3.87974e-06 0.148655 3.96013 11.4341 
843 0.0026 0.0026 0 -1.08785e-05 -1.08785e-05 -7.01301e-08 0.108785 18.5003 27.9534 
863 0.0042 0.0042 0 -1.88436e-05 -1.88436e-05 4.01901e-06 0.188436 15.5836 32.2021 
883 0.003 0.003 0 -1.37455e-05 -1.37455e-05 -1.27573e-06 0.137455 8.79729 27.8201 
903 0.0024 0.0024 0 -1.14943e-05 -1.14943e-05 2.07142e-06 0.114943 2.31352 15.352 
923 0.0038 0.0038 0 -1.77599e-05 -1.77599e-05 7.46486e-07 0.177599 15.0573 33.0031 
943 0.0032 0.0032 0 -1.38687e-05 -1.38687e-05 1.88376e-06 0.138687 32.8963 39.5668 
963 0.0014 0.0014 0 -1.60611e-07 -1.60611e-07 2.52841e-06 0.512493 28.7478 215.672 
983 0.0658 0.0658 0 0.000197745 0.000197745 -1.58103e-06 3.60123 1346.74 1684.47 
1003 0.0726 0.0726 0 0.000171018 0.000171018 1.95435e-05 3.78706 1154.92 1571.28 
1023 0.0802 0.0802 0 0.000198363 0.000198363 8.91783e-06 4.16013 1298.71 1753 
1043 0.0792 0.0792 0 0.000174704 0.000174704 9.26784e-06 4.27786 1261.71 1662.38 
1063 0.0886 0.0886 0 0.00020462 0.00020462 -1.26213e-05 4.69355 1568.02 2063.62 
1083 0.0848 0.0848 0 0.000214392 0.000214392 -4.29758e-05 4.31748 1435.46 1911.71 
1103 0.0908 0.0908 0 0.000216031 0.000216031 1.5249e-06 4.54791 1441.77 1950.98 
1123 0.0868 0.0868 0 0.000191826 0.000191826 -4.81748e-06 4.70108 1384.45 1951.9 
1143 0.0972 0.0972 0 0.000212707 0.000212707 1.75541e-05 5.25942 1643.79 2267.6 
1163 0.1022 0.1022 0 0.000205279 0.000205279 -1.41206e-05 5.47457 1509.97 2145.47 
1183 0.0978 0.0978 0 0.000210266 0.000210266 9.10736e-06 5.06096 1434.19 1961.78 
1203 0.0936 0.0936 0 0.000217218 0.000217218 9.94301e-06 4.81942 1625.48 2266.23 
1223 0.1014 0.1014 0 0.000253139 0.000253139 4.22606e-06 5.3115 1887.86 2587.02 
1243 0.094 0.094 0 0.000205792 0.000205792 -2.21337e-05 4.91401 1450.79 2063.66 
1263 0.0982 0.0982 0 0.000227029 0.000227029 3.57991e-05 5.01171 1544.25 2256.48 
4 0.0166 0.0166 0 7.39858e-05 7.39858e-05 5.35912e-07 9.72976 3535.12 4868.34 
24 0.693 0.693 0 0.00405726 0.00405726 6.04865e-05 40.5726 10147.7 13715.2 
44 0.7498 0.7498 0 0.00412168 0.00412168 -2.24413e-05 41.2168 8577.42 11789.3 
64 0.778 0.778 0 0.00420335 0.00420335 -3.95497e-05 42.0335 8104.93 11466.8 
84 0.8222 0.8222 0 0.00439485 0.00439485 -1.48699e-05 43.9485 8274.43 11560.7 
104 0.8138 0.8138 0 0.00432326 0.00432326 -7.3881e-05 43.2326 7362.52 10505.4 
124 0.8294 0.8294 0 0.00437989 0.00437989 2.53968e-05 43.7989 7286.4 10362.9 
144 0.8574 0.8574 0 0.00450314 0.00450314 -9.09135e-06 45.0314 7454.72 10404.2 
164 0.8484 0.8484 0 0.00447883 0.00447883 -2.63299e-05 44.7883 7398.81 10565.7 
184 0.85 0.85 0 0.00447129 0.00447129 -2.53922e-05 44.7129 6979.27 9922.58 
204 0.8444 0.8444 0 0.00446786 0.00446786 2.9607e-06 44.6786 7155.56 10204 
224 0.848 0.848 0 0.00450223 0.00450223 3.69849e-05 45.0223 7707.64 11031.2 
244 0.826 0.826 0 0.00442961 0.00442961 -1.85794e-05 44.2961 7660.88 10805.5 
264 0.7958 0.7958 0 0.00427096 0.00427096 8.47264e-06 42.7096 7896.38 10794.7 
284 0.7636 0.7636 0 0.00412072 0.00412072 4.55779e-05 41.2072 7956.45 11231.6 
304 0.711 0.711 0 0.0040198 0.0040198 6.56635e-06 40.198 9174.22 13013.4 
324 0.0286 0.0286 0 0.000170496 0.000170496 -6.84505e-06 16.905 5245.18 7250.16 
344 0.1 0.1 0 0.00021796 0.00021796 4.49187e-06 4.96732 1519.71 2233 
364 0.0968 0.0968 0 0.000215708 0.000215708 -2.46968e-05 5.0012 1630.07 2226.62 
384 0.1028 0.1028 0 0.000236256 0.000236256 1.54942e-05 5.28308 1629.31 2245.83 
404 0.098 0.098 0 0.000211454 0.000211454 -1.94189e-05 5.12716 1593.25 2206.87 
424 0.0892 0.0892 0 0.000193676 0.000193676 -9.42756e-06 4.68282 1442.66 2045.24 
444 0.1026 0.1026 0 0.000233308 0.000233308 -1.13364e-05 5.32687 1527.57 2154.77 
464 0.0988 0.0988 0 0.00022678 0.00022678 -1.68404e-05 5.07174 1456.1 2005.12 
484 0.0932 0.0932 0 0.000210369 0.000210369 -1.05565e-05 4.95846 1514.1 1955.28 
504 0.0876 0.0876 0 0.000190739 0.000190739 -4.6945e-06 4.69709 1322.07 1782 
524 0.0868 0.0868 0 0.000174308 0.000174308 8.84166e-06 4.51768 1335.16 1799.61 
544 0.0934 0.0934 0 0.000165542 0.000165542 -1.12158e-05 4.94121 1300.86 1737.62 
564 0.086 0.086 0 0.000194113 0.000194113 -1.10725e-05 4.74311 1508.31 1887.34 
584 0.0804 0.0804 0 0.000203248 0.000203248 -1.84358e-05 4.23282 1317.69 1836.25 
604 0.079 0.079 0 0.000202573 0.000202573 1.24137e-05 4.22013 1339.7 1753.59 
624 0.0676 0.0676 0 0.000174592 0.000174592 -1.41602e-06 3.5638 1170.57 1469.35 
644 0.0006 0.0006 0 -6.85921e-07 -6.85921e-07 4.84644e-07 0.217296 9.02111 22.9515 
664 0.0028 0.0028 0 -1.05984e-05 -1.05984e-05 5.02155e-07 0.105984 18.4809 21.6164 
684 0.002 0.002 0 -9.2652e-06 -9.2652e-06 -4.22801e-06 0.092652 10.2345 14.2284 
704 0.0034 0.0034 0 -1.41088e-05 -1.41088e-05 -1.87764e-06 0.141088 17.3404 33.0649 
724 0.0028 0.0028 0 -1.41382e-05 -1.41382e-05 2.34564e-06 0.141382 7.21686 17.9688 
744 0.0044 0.0044 0 -1.88811e-05 -1.88811e-05 -2.29768e-06 0.188811 32.1668 66.0035 
764 0.0018 0.0018 0 -7.68564e-06 -7.68564e-06 7.72894e-07 0.0768564 4.18049 8.91982 
784 0.0032 0.0032 0 -1.36808e-05 -1.36808e-05 1.80597e-06 0.136808 22.9054 38.7871 
804 0.0034 0.0034 0 -1.71994e-05 -1.71994e-05 -5.15886e-07 0.171994 13.7534 17.876 
824 0.0022 0.0022 0 -7.03265e-06 -7.03265e-06 2.32186e-06 0.0703265 4.85736 19.1175 
844 0.0026 0.0026 0 -9.7261e-06 -9.7261e-06 2.36317e-06 0.097261 4.68457 31.658 
864 0.0018 0.0018 0 -8.03636e-06 -8.03636e-06 1.98334e-06 0.0803636 6.50786 16.9604 
884 0.0038 0.0038 0 -1.69266e-05 -1.69266e-05 1.73189e-06 0.169266 30.7922 46.9639 
904 0.0022 0.0022 0 -9.98844e-06 -9.98844e-06 -1.1153e-06 0.0998844 2.12809 9.38191 
924 0.0026 0.0026 0 -9.75035e-06 -9.75035e-06 3.06401e-07 0.0975035 1.21768 24.3671 
944 0.0024 0.0024 0 -9.34196e-06 -9.34196e-06 -3.21368e-06 0.0934196 22.6117 32.3265 
964 0.0022 0.0022 0 2.01658e-06 2.01658e-06 2.49408e-06 1.02303 846.312 950.163 
984 0.0672 0.0672 0 0.000190813 0.000190813 -1.75969e-06 3.53268 1278.05 1655.42 
1004 0.0766 0.0766 0 0.000213488 0.000213488 -6.34895e-06 4.0012 1225.2 1577.31 
1024 0.088 0.088 0 0.00021345 0.00021345 -8.52268e-07 4.84016 1338.4 1797.5 
1044 0.0882 0.0882 0 0.000180939 0.000180939 -5.9299e-06 4.65338 1191.71 1562.7 
1064 0.0836 0.0836 0 0.000164803 0.000164803 -4.51112e-06 4.41566 1279.58 1795.41 
1084 0.0854 0.0854 0 0.000193624 0.000193624 -7.7147e-06 4.40797 1350.46 1810.18 
1104 0.0868 0.0868 0 0.000173735 0.000173735 -4.9836e-05 4.5989 1218.55 1656.45 
1124 0.0832 0.0832 0 0.000181032 0.000181032 -1.08392e-06 4.3288 1274.63 1741.63 
1144 0.0978 0.0978 0 0.000208239 0.000208239 1.71882e-05 5.13103 1536.07 2090.79 
1164 0.095 0.095 0 0.000202873 0.000202873 -1.54439e-05 5.08465 1421.67 1980.07 
1184 0.1002 0.1002 0 0.000226465 0.000226465 3.61268e-06 5.17703 1535.87 2177.78 
1204 0.09 0.09 0 0.000192213 0.000192213 1.78644e-05 4.87117 1467.45 2107.31 
1224 0.093 0.093 0 0.00020911 0.00020911 -8.63294e-06 4.89658 1521.26 2111.41 
1244 0.0972 0.0972 0 0.000216483 0.000216483 9.515e-06 5.20749 1467.41 2094.99 
1264 0.094 0.094 0 0.000191539 0.000191539 1.90896e-05 4.72674 1322.61 1967.89 
5 0.0198 0.0198 0 9.68336e-05 9.68336e-05 1.06027e-05 11.0982 4042.95 5267.57 
25 0.6726 0.6726 0 0.00399545 0.00399545 -1.88327e-05 39.9545 10265.7 13778.4 
45 0.7664 0.7664 0 0.0041839 0.0041839 1.61313e-05 41.839 8744.47 12161.2 
65 0.792 0.792 0 0.0042314 0.0042314 5.06516e-05 42.314 8396.85 11787.6 
85 0.7982 0.7982 0 0.00425758 0.00425758 -2.46541e-05 42.5758 7807.35 10901.7 
105 0.836 0.836 0 0.00445423 0.00445423 -1.20967e-05 44.5423 7857.88 10732 
125 0.8382 0.8382 0 0.00442602 0.00442602 4.26632e-05 44.2602 7267.52 10215.2 
145 0.856 0.856 0 0.00454933 0.00454933 1.47614e-06 45.4933 7488.43 10348.7 
165 0.8378 0.8378 0 0.00443904 0.00443904 3.61031e-05 44.3904 7529.97 10615.8 
185 0.8558 0.8558 0 0.0044512 0.0044512 2.35406e-05 44.512 7624.31 10867.3 
205 0.8474 0.8474 0 0.00441629 0.00441629 -4.28199e-05 44.1629 7251.22 10329.2 
225 0.8252 0.8252 0 0.00439012 0.00439012 -8.40458e-05 43.9012 7735.78 10826.7 
245 0.833 0.833 0 0.00438893 0.00438893 -7.42759e-05 43.8893 7542.34 10761.1 
265 0.8052 0.8052 0 0.00432897 0.00432897 1.02796e-05 43.2897 7930.84 11239 
285 0.7434 0.7434 0 0.00405792 0.00405792 1.69104e-05 40.5792 7900.1 10757.1 
305 0.6888 0.6888 0 0.00393021 0.00393021 -5.12259e-05 39.3021 9774.67 13434.6 
325 0.0286 0.0286 0 0.000164833 0.000164833 1.54863e-06 18.3826 4786.2 6676.97 
345 0.1036 0.1036 0 0.000248521 0.000248521 1.61295e-05 5.41669 1834.03 2492.21 
365 0.0968 0.0968 0 0.000224892 0.000224892 2.35092e-05 4.95262 1613.73 2292.59 
385 0.0992 0.0992 0 0.000192595 0.000192595 7.86908e-06 4.92567 1413.72 2080.58 
405 0.0902 0.0902 0 0.000182933 0.000182933 5.17915e-06 4.88615 1390.08 1989.8 
425 0.0938 0.0938 0 0.000236238 0.000236238 9.51764e-06 4.94961 1676.72 2232.6 
445 0.0932 0.0932 0 0.000202005 0.000202005 -3.33938e-06 4.92722 1414.21 1846.22 
465 0.094 0.094 0 0.00019511 0.00019511 9.38137e-06 4.96258 1455 1920 
485 0.0948 0.0948 0 0.000219787 0.000219787 -1.28158e-05 4.93218 1529.77 2031.68 
505 0.0874 0.0874 0 0.000177863 0.000177863 3.05211e-06 4.58884 1366.5 1781.53 
525 0.092 0.092 0 0.000202407 0.000202407 -7.13616e-06 4.87599 1465.53 1971.28 
545 0.0852 0.0852 0 0.000176712 0.000176712 -2.00766e-05 4.48087 1353.58 1818.65 
565 0.0862 0.0862 0 0.000201241 0.000201241 9.78882e-07 4.61711 1436.74 1795.7 
585 0.0806 0.0806 0 0.000200067 0.000200067 -2.5951e-05 4.3233 1239.31 1704.94 
605 0.0692 0.0692 0 0.000157381 0.000157381 1.25137e-05 3.65859 1136.54 1578.99 
625 0.0638 0.0638 0 0.000166992 0.000166992 4.81385e-06 3.38128 1087.79 1433.71 
645 0.001 0.001 0 -1.62334e-06 -1.62334e-06 -3.7231e-07 0.413528 20.5418 30.7526 
665 0.0028 0.0028 0 -1.23908e-05 -1.23908e-05 -4.42433e-06 0.123908 12.9281 13.5031 
685 0.002 0.002 0 -8.85308e-06 -8.85308e-06 1.63818e-06 0.0885308 10.781 9.60865 
705 0.0036 0.0036 0 -1.64882e-05 -1.64882e-05 -2.2142e-06 0.164882 23.0731 39.0052 
725 0.004 0.004 0 -2.1503e-05 -2.1503e-05 6.17011e-07 0.21503 36.5964 54.2999 
745 0.0026 0.0026 0 -1.15326e-05 -1.15326e-05 3.04225e-06 0.115326 1.45664 20.8353 
765 0.0022 0.0022 0 -1.0557e-05 -1.0557e-05 3.51873e-06 0.10557 6.86788 18.5479 
785 0.003 0.003 0 -1.38679e-05 -1.38679e-05 1.16863e-06 0.138679 4.24356 12.1086 
805 0.0034 0.0034 0 -1.71151e-05 -1.71151e-05 -6.24535e-07 0.171151 18.1002 27.6272 
825 0.0016 0.0016 0 -5.5101e-06 -5.5101e-06 -5.08502e-07 0.055101 8.46791 20.6563 
845 0.0032 0.0032 0 -1.35492e-05 -1.35492e-05 1.1973e-06 0.135492 5.91536 59.2482 
865 0.0032 0.0032 0 -1.28979e-05 -1.28979e-05 3.54844e-06 0.128979 25.2261 44.878 
885 0.0032 0.0032 0 -1.40207e-05 -1.40207e-05 2.64732e-06 0.140207 8.84352 15.1487 
905 0.003 0.003 0 -1.21679e-05 -1.21679e-05 -1.43869e-06 0.121679 16.4715 17.2742 
925 0.0022 0.0022 0 -8.19549e-06 -8.19549e-06 -9.01899e-07 0.0819549 -4.58776 -2.60874 
945 0.0032 0.0032 0 -1.14238e-05 -1.14238e-05 2.4187e-06 0.114238 0.465515 27.6316 
965 0.0026 0.0026 0 6.54846e-07 6.54846e-07 -1.2936e-06 1.2105 379.414 544.271 
985 0.0676 0.0676 0 0.000181188 0.000181188 3.57699e-06 3.57663 1139.68 1482.53 
1005 0.0718 0.0718 0 0.000184072 0.000184072 1.19144e-05 3.7797 1109.73 1560.73 
1025 0.0746 0.0746 0 0.000154504 0.000154504 -6.81256e-06 4.00361 1217.41 1670.54 
1045 0.08 0.08 0 0.000193056 0.000193056 6.2079e-06 4.14087 1234.8 1638.53 
1065 0.08 0.08 0 0.000169789 0.000169789 2.53347e-06 4.38691 1193.41 1551.41 
1085 0.0792 0.0792 0 0.000167354 0.000167354 5.0081e-06 4.22792 1170.56 1607.05 
1105 0.0946 0.0946 0 0.0002083 0.0002083 1.88391e-05 4.9868 1502.24 2072.55 
1125 0.0928 0.0928 0 0.000202113 0.000202113 3.15739e-05 5.03377 1270.77 1858.22 
1145 0.0966 0.0966 0 0.000228497 0.000228497 -5.60369e-06 4.878 1580.78 2060.3 
1165 0.0878 0.0878 0 0.000187922 0.000187922 -2.49114e-05 4.79683 1474.94 1951.07 
1185 0.09 0.09 0 0.000211047 0.000211047 -6.92255e-06 4.79666 1593.33 2093.11 
1205 0.0964 0.0964 0 0.00018991 0.00018991 2.85772e-06 4.94745 1404.3 2021.96 
1225 0.0906 0.0906 0 0.000214064 0.000214064 3.3117e-06 4.7949 1486.11 2044.33 
1245 0.1064 0.1064 0 0.000226338 0.000226338 -2.14726e-06 5.5013 1561.76 2283.87 
1265 0.093 0.093 0 0.000198994 0.000198994 7.10411e-06 4.62656 1577.88 2326 
6 0.0242 0.0242 0 0.000120218 0.000120218 6.61269e-06 13.6772 4073.15 5732.72 
26 0.684 0.684 0 0.0039894 0.0039894 -8.18622e-06 39.894 9242.87 12955.4 
46 0.7408 0.7408 0 0.00411491 0.00411491 -8.11425e-07 41.1491 9003.18 12358.8 
66 0.7814 0.7814 0 0.00423802 0.00423802 3.59595e-05 42.3802 8130.41 11482.9 
86 0.8224 0.8224 0 0.0043743 0.0043743 -2.60766e-05 43.743 7932.2 11192.1 
106 0.8412 0.8412 0 0.00446688 0.00446688 2.27957e-05 44.6688 7529.69 10549.2 
126 0.8594 0.8594 0 0.00458174 0.00458174 4.46261e-05 45.8174 7685.78 10872.8 
146 0.8394 0.8394 0 0.00443929 0.00443929 4.57722e-05 44.3929 7597.98 10514.2 
166 0.837 0.837 0 0.00441039 0.00441039 -3.44696e-06 44.1039 6948.72 9807.23 
186 0.8304 0.8304 0 0.0043357 0.0043357 -2.54853e-05 43.357 7403.75 10432 
206 0.8498 0.8498 0 0.00446962 0.00446962 -5.48934e-05 44.6962 7704.42 10843.3 
226 0.8084 0.8084 0 0.00424925 0.00424925 -4.95431e-06 42.4925 7046.44 10026.5 
246 0.826 0.826 0 0.00439671 0.00439671 4.54627e-05 43.9671 7711.93 10858.2 
266 0.7928 0.7928 0 0.00420408 0.00420408 8.76963e-05 42.0408 7962.51 11365.1 
286 0.7442 0.7442 0 0.00411271 0.00411271 -1.03623e-05 41.1271 8737.38 12098.5 
306 0.6836 0.6836 0 0.00390753 0.00390753 -1.46669e-05 39.0753 9626.35 12929.6 
326 0.0234 0.0234 0 0.000117695 0.000117695 1.97726e-06 13.7835 3998.05 6012.19 
346 0.095 0.095 0 0.000242044 0.000242044 6.35482e-06 4.97218 1587.12 2275.1 
366 0.1012 0.1012 0 0.000249155 0.000249155 -1.48907e-06 5.28817 1653.33 2367.44 
386 0.0976 0.0976 0 0.000201307 0.000201307 -8.66081e-06 5.10005 1597.06 2205.32 
406 0.0988 0.0988 0 0.000200001 0.000200001 -6.83926e-06 5.07412 1524.3 2136.75 
426 0.1016 0.1016 0 0.000229165 0.000229165 3.02969e-05 5.27961 1550.16 2210.75 
446 0.0926 0.0926 0 0.000193206 0.000193206 -1.02695e-05 4.95757 1542.66 2086.94 
466 0.0858 0.0858 0 0.000171393 0.000171393 -2.34395e-05 4.58814 1331.69 1808.01 
486 0.0838 0.0838 0 0.000185686 0.000185686 -8.55694e-06 4.43382 1455.2 1895.62 
506 0.089 0.089 0 0.000173806 0.000173806 -2.9415e-06 4.66823 1316.69 1856.77 
526 0.0926 0.0926 0 0.000197139 0.000197139 7.6261e-06 4.82192 1574.6 2086.9 
546 0.0908 0.0908 0 0.000178151 0.000178151 -2.12365e-06 4.82832 1341.07 1916.61 
566 0.0844 0.0844 0 0.000187384 0.000187384 9.1469e-06 4.504 1416.19 1826.65 
586 0.0684 0.0684 0 0.000155233 0.000155233 -7.27423e-06 3.50611 1083.02 1388.74 
606 0.0764 0.0764 0 0.000203102 0.000203102 -1.90205e-05 3.94005 1308.43 1680.1 
626 0.0674 0.0674 0 0.000177168 0.000177168 -6.88213e-06 3.57995 1208.55 1538.64 
646 0.0008 0.0008 0 -9.76049e-07 -9.76049e-07 -1.86959e-07 0.321633 170.648 163.595 
666 0.0036 0.0036 0 -1.10466e-05 -1.10466e-05 -2.82137e-07 0.110466 29.6201 30.7908 
686 0.0022 0.0022 0 -8.7241e-06 -8.7241e-06 3.24428e-06 0.087241 27.9589 35.9069 
706 0.0024 0.0024 0 -1.0209e-05 -1.0209e-05 1.69918e-06 0.10209 19.756 23.6543 
726 0.0028 0.0028 0 -1.40428e-05 -1.40428e-05 4.56417e-07 0.140428 4.28833 29.8492 
746 0.0034 0.0034 0 -1.15503e-05 -1.15503e-05 -1.75568e-06 0.115503 1.9227 3.37195 
766 0.0028 0.0028 0 -1.06266e-05 -1.06266e-05 -3.28979e-07 0.106266 10.0173 31.355 
786 0.0022 0.0022 0 -8.04218e-06 -8.04218e-06 2.25757e-06 0.0804218 -1.30027 12.3366 
806 0.0028 0.0028 0 -1.2349e-05 -1.2349e-05 -1.34047e-06 0.12349 15.172 21.1062 
826 0.0034 0.0034 0 -1.47216e-05 -1.47216e-05 7.84533e-07 0.147216 32.8895 54.7864 
846 0.0024 0.0024 0 -8.22637e-06 -8.22637e-06 -1.1505e-06 0.0822637 14.5941 20.604 
866 0.004 0.004 0 -1.97412e-05 -1.97412e-05 1.80329e-06 0.197412 19.389 43.1171 
886 0.0044 0.0044 0 -1.73008e-05 -1.73008e-05 -1.80444e-06 0.173008 43.9387 66.8333 
906 0.0026 0.0026 0 -1.22702e-05 -1.22702e-05 -7.5502e-08 0.122702 7.08956 31.1963 
926 0.003 0.003 0 -1.40875e-05 -1.40875e-05 3.40669e-06 0.140875 38.5301 66.1642 
946 0.0026 0.0026 0 -8.54645e-06 -8.54645e-06 1.02772e-07 0.0854645 5.82761 24.8616 
966 0.0022 0.0022 0 4.85872e-06 4.85872e-06 -7.66725e-07 1.00357 481.91 554.419 