ITEM: TIMESTEP
25000
ITEM: NUMBER OF SURFS
1272
ITEM: BOX BOUNDS oo rr pp
0 0.3
0 0.3
-0.5 0.5
ITEM: SURFS id f_4[1] f_4[2] f_4[3] f_4[4] f_4[5] f_4[6] f_4[7] f_4[8] f_4[9] 
1 0 0 0 0 0 0 0 0 0 
21 0.0044 0.0044 0 0.00305109 0.00305109 -8.73338e-05 30.5109 8338.55 10332.6 
41 0.0062 0.0062 0 0.00433487 0.00433487 -0.000350857 43.3487 11535.1 13986.6 
61 0.008 0.008 0 0.0046594 0.0046594 -0.000898552 46.594 7357.85 13573.2 
81 0.0076 0.0076 0 0.00417484 0.00417484 8.90865e-05 41.7484 9802 14076.7 
101 0.0098 0.0098 0 0.00562649 0.00562649 -0.000337876 56.2649 13074.1 14670 
121 0.007 0.007 0 0.00418989 0.00418989 -0.00056318 41.8989 6387.11 8790.82 
141 0.0082 0.0082 0 0.00457292 0.00457292 -0.000193428 45.7292 6490.81 9818.02 
161 0.0072 0.0072 0 0.00361254 0.00361254 0.000135453 36.1254 8503.98 11447.9 
181 0.0076 0.0076 0 0.00344744 0.00344744 -0.000147483 34.4744 8741.26 11219.2 
201 0.0074 0.0074 0 0.00387907 0.00387907 -1.76783e-05 38.7907 5335.66 9453.05 
221 0.0116 0.0116 0 0.00581133 0.00581133 0.000222814 58.1133 8507.71 14317.7 
241 0.0068 0.0068 0 0.00414985 0.00414985 -1.37069e-05 41.4985 7551.11 8784.97 
261 0.0066 0.0066 0 0.00358635 0.00358635 0.000452012 35.8635 6236.82 7930.85 
281 0.0082 0.0082 0 0.00455802 0.00455802 2.16072e-05 45.5802 7527.49 10348.8 
301 0.0062 0.0062 0 0.00312624 0.00312624 -0.000163242 31.2624 7112.58 9321.85 
321 0.0004 0.0004 0 0.000314034 0.000314034 0.000159082 30.0314 18859.4 18927.2 
341 0.0012 0.0012 0 0.000210912 0.000210912 -0.000201774 6.35396 794.103 1076.77 
361 0.001 0.001 0 -1.72929e-05 -1.72929e-05 0.000285899 4.83136 1043.66 1743.79 
381 0.0016 0.0016 0 0.000165958 0.000165958 -8.63788e-05 7.06356 186.018 745.733 
401 0.001 0.001 0 0.000351605 0.000351605 1.08906e-05 6.56893 2419.65 2689.09 
421 0.0002 0.0002 0 -1.41164e-06 -1.41164e-06 6.32394e-05 1.0633 335.881 418.684 
441 0.0006 0.0006 0 2.69075e-05 2.69075e-05 0.000109 3.19707 657.74 526.04 
461 0.0012 0.0012 0 0.000177718 0.000177718 7.66623e-05 5.65743 1845.62 4574.53 
481 0.0012 0.0012 0 8.54219e-05 8.54219e-05 5.70234e-05 6.52463 2868.46 4044.9 
501 0.001 0.001 0 0.000289664 0.000289664 6.97676e-05 6.67635 1124.3 1905.42 
521 0.0008 0.0008 0 0.000120663 0.000120663 -7.58243e-05 3.8505 445.154 1437.69 
541 0.0006 0.0006 0 9.40462e-05 9.40462e-05 3.50836e-05 3.45427 391.721 1105.03 
561 0.0012 0.0012 0 0.0001346 0.0001346 -2.36506e-05 6.77599 769.84 636.309 
581 0.0008 0.0008 0 0.000305843 0.000305843 -0.000176326 3.0914 2207.57 2535.59 
601 0.0004 0.0004 0 0.000157029 0.000157029 6.19787e-06 3.14954 397.217 377.309 
621 0.0006 0.0006 0 0.000287194 0.000287194 -0.000123354 4.40759 2488.57 2771.01 
641 0 0 0 0 0 0 0 0 0 
661 0 0 0 0 0 0 0 0 0 
681 0 0 0 0 0 0 0 0 0 
701 0 0 0 0 0 0 0 0 0 
721 0 0 0 0 0 0 0 0 0 
741 0 0 0 0 0 0 0 0 0 
761 0 0 0 0 0 0 0 0 0 
781 0 0 0 0 0 0 0 0 0 
801 0.0002 0.0002 0 -0.000108106 -0.000108106 -2.39741e-05 1.08106 -0.220243 -434.618 
821 0 0 0 0 0 0 0 0 0 
841 0 0 0 0 0 0 0 0 0 
861 0 0 0 0 0 0 0 0 0 
881 0 0 0 0 0 0 0 0 0 
901 0 0 0 0 0 0 0 0 0 
921 0 0 0 0 0 0 0 0 0 
941 0 0 0 0 0 0 0 0 0 
961 0 0 0 0 0 0 0 0 0 
981 0.0002 0.0002 0 0.000113205 0.000113205 7.62874e-05 1.44195 -275.988 -285.641 
1001 0.001 0.001 0 0.000210277 0.000210277 0.000252308 6.1497 2967.32 3272.06 
1021 0.0006 0.0006 0 -1.41135e-05 -1.41135e-05 -0.00011928 2.99295 951.809 1019.73 
1041 0.001 0.001 0 0.000243229 0.000243229 -0.000276347 6.79787 999.131 1712.17 
1061 0.0002 0.0002 0 3.77348e-05 3.77348e-05 -8.48569e-05 0.801034 311.966 331.69 
1081 0.0006 0.0006 0 0.000261226 0.000261226 9.66105e-05 2.87877 219.01 1051 
1101 0.0008 0.0008 0 -1.34952e-05 -1.34952e-05 0.00011223 4.41325 326.484 372.444 
1121 0.0022 0.0022 0 0.000554162 0.000554162 -0.000456998 11.7729 3754.44 4855.54 
1141 0.0016 0.0016 0 0.000181773 0.000181773 -0.000147617 9.19989 820.523 2094.6 
1161 0.001 0.001 0 0.000237654 0.000237654 -8.298e-06 4.48749 2370.59 2414.78 
1181 0.001 0.001 0 9.69805e-05 9.69805e-05 -0.000154531 4.0841 1205.98 956.335 
1201 0.0024 0.0024 0 0.00061671 0.00061671 -3.00493e-05 12.7176 3809.65 7424.55 
1221 0.0016 0.0016 0 0.000371914 0.000371914 -0.000179038 7.696 1587.96 4175.81 
1241 0.0006 0.0006 0 0.000324478 0.000324478 -0.00014557 3.9175 5162.1 6147.87 
1261 0.0006 0.0006 0 6.99966e-05 6.99966e-05 4.63116e-05 3.90912 333.3 1081.84 
2 0.0004 0.0004 0 0.000360819 0.000360819 0.000156794 19.7932 21869.8 22485.2 
22 0.0062 0.0062 0 0.00403187 0.00403187 0.0001908 40.3187 13953.6 16371.7 
42 0.006 0.006 0 0.00331044 0.00331044 -2.4007e-05 33.1044 9873.2 13377 
62 0.0076 0.0076 0 0.00405049 0.00405049 7.33567e-05 40.5049 5989.84 11525.4 
82 0.0074 0.0074 0 0.00420184 0.00420184 0.000135433 42.0184 9903.62 13267 
102 0.0086 0.0086 0 0.00465462 0.00465462 -2.44679e-05 46.5462 8232.38 11638.7 
122 0.0068 0.0068 0 0.00343669 0.00343669 -0.000194734 34.3669 3476.77 7645.39 
142 0.0058 0.0058 0 0.00285735 0.00285735 0.00038949 28.5735 6048.07 8505.34 
162 0.0058 0.0058 0 0.00310056 0.00310056 -0.000188695 31.0056 6048.56 9875.87 
182 0.009 0.009 0 0.00428083 0.00428083 7.68138e-05 42.8083 6346.67 9000.14 
202 0.0094 0.0094 0 0.00460992 0.00460992 0.000498949 46.0992 8359.89 10427.3 
222 0.009 0.009 0 0.00433908 0.00433908 0.0006947 43.3908 2961.83 6916.3 
242 0.0092 0.0092 0 0.0041918 0.0041918 2.9026e-05 41.918 8957.09 12802.1 
262 0.0076 0.0076 0 0.00382672 0.00382672 -1.60225e-05 38.2672 6295.49 9918.79 
282 0.0084 0.0084 0 0.00440016 0.00440016 -0.000414927 44.0016 10181.9 13710.8 
302 0.0058 0.0058 0 0.00304689 0.00304689 0.000162362 30.4689 6567.82 9947.4 
322 0.0004 0.0004 0 0.000323467 0.000323467 -0.000124077 26.7262 10463 13359.1 
342 0.0004 0.0004 0 8.25577e-05 8.25577e-05 -2.51579e-05 1.81168 -42.7847 223.948 
362 0.0006 0.0006 0 9.97293e-05 9.97293e-05 0.000180656 2.41933 962.33 1984.28 
382 0.0018 0.0018 0 0.000657456 0.000657456 0.000110055 10.1537 2390.21 3886.61 
402 0.0014 0.0014 0 0.00041886 0.00041886 0.000404741 6.4645 3299.26 4213.65 
422 0.001 0.001 0 0.000123239 0.000123239 0.00020479 4.84145 1628.65 2015.54 
442 0.0006 0.0006 0 0.000137978 0.000137978 0.000172168 4.59175 1320.08 1578.84 
462 0.0016 0.0016 0 0.000171461 0.000171461 -0.000325229 8.60023 1464.76 2002.06 
482 0.0018 0.0018 0 0.000843346 0.000843346 -5.43472e-05 11.3396 4797.82 5860.99 
502 0.0008 0.0008 0 3.55788e-05 3.55788e-05 6.75385e-05 4.55792 -226.202 1804.91 
522 0.001 0.001 0 0.00030153 0.00030153 2.20175e-05 5.05474 1337.67 1657.35 
542 0.0004 0.0004 0 0.000230351 0.000230351 -3.3047e-06 2.69922 1714.28 1927.86 
562 0.001 0.001 0 0.00048081 0.00048081 0.00014568 5.69636 2768.68 2933.96 
582 0.0014 0.0014 0 0.00037375 0.00037375 1.52604e-05 7.25334 915.861 1075.61 
602 0.0004 0.0004 0 5.32998e-05 5.32998e-05 -3.84147e-05 2.65982 -183.976 -182.272 
622 0.0004 0.0004 0 6.44436e-05 6.44436e-05 -3.14182e-05 2.62038 1521.28 1871.2 
642 0 0 0 0 0 0 0 0 0 
662 0 0 0 0 0 0 0 0 0 
682 0 0 0 0 0 0 0 0 0 
702 0 0 0 0 0 0 0 0 0 
722 0 0 0 0 0 0 0 0 0 
742 0 0 0 0 0 0 0 0 0 
762 0 0 0 0 0 0 0 0 0 
782 0.0002 0.0002 0 -7.73462e-05 -7.73462e-05 6.70266e-05 0.773462 147.724 236.51 
802 0 0 0 0 0 0 0 0 0 
822 0 0 0 0 0 0 0 0 0 
842 0 0 0 0 0 0 0 0 0 
862 0.0002 0.0002 0 -0.000108887 -0.000108887 0.000143211 1.08887 280.906 277.807 
882 0 0 0 0 0 0 0 0 0 
902 0 0 0 0 0 0 0 0 0 
922 0 0 0 0 0 0 0 0 0 
942 0 0 0 0 0 0 0 0 0 
962 0 0 0 0 0 0 0 0 0 
982 0.0006 0.0006 0 0.00012496 0.00012496 -4.53194e-06 2.86172 646.184 1735.84 
1002 0.0004 0.0004 0 0.000244219 0.000244219 -8.11817e-05 2.08839 787.379 796.448 
1022 0.001 0.001 0 0.000332694 0.000332694 1.99709e-06 5.97815 1438.37 1810.68 
1042 0.0008 0.0008 0 0.000171689 0.000171689 -8.15006e-05 5.3685 1129.05 1598.38 
1062 0.0012 0.0012 0 8.4956e-05 8.4956e-05 0.000252097 7.20269 2244.6 2765.25 
1082 0.0006 0.0006 0 0.000107529 0.000107529 0.000184792 3.12137 1395.4 1639.14 
1102 0.0012 0.0012 0 5.9537e-05 5.9537e-05 8.96071e-05 6.94064 575.408 1463.75 
1122 0.0004 0.0004 0 0.00013927 0.00013927 2.11553e-05 2.17147 773.746 1764.88 
1142 0.0004 0.0004 0 9.97817e-05 9.97817e-05 -1.86242e-05 1.65156 318.69 252.546 
1162 0.0006 0.0006 0 0.00036214 0.00036214 3.48212e-05 2.6285 163.224 2491.96 
1182 0.0006 0.0006 0 2.77606e-05 2.77606e-05 -0.000167677 2.70317 439.663 1007.54 
1202 0.0016 0.0016 0 0.000279725 0.000279725 -6.14252e-05 7.87212 1297.37 2679.4 
1222 0.0002 0.0002 0 5.96823e-05 5.96823e-05 -1.13273e-05 0.753201 173.552 591.772 
1242 0.0018 0.0018 0 0.000388526 0.000388526 -0.000277406 10.3427 4164.71 5132.24 
1262 0.0014 0.0014 0 0.00046894 0.00046894 0.000162137 6.66299 2896.91 4137.19 
3 0 0 0 0 0 0 0 0 0 
23 0.006 0.006 0 0.00397793 0.00397793 4.4741e-05 39.7793 11503.3 14728.3 
43 0.0096 0.0096 0 0.0051467 0.0051467 0.000160652 51.467 12481.6 15450.1 
63 0.0078 0.0078 0 0.00426269 0.00426269 0.000268959 42.6269 4718.61 5191.26 
83 0.0078 0.0078 0 0.00477066 0.00477066 0.000109948 47.7066 11370.3 15839.2 
103 0.007 0.007 0 0.00326734 0.00326734 0.000385532 32.6734 10429.2 12282.7 
123 0.0076 0.0076 0 0.00375246 0.00375246 0.00038301 37.5246 7553.1 11677.9 
143 0.0076 0.0076 0 0.00386859 0.00386859 0.000207785 38.6859 6126.84 10277.3 
163 0.0082 0.0082 0 0.00460932 0.00460932 -0.000433484 46.0932 13999.9 16477.6 
183 0.0088 0.0088 0 0.00467139 0.00467139 -0.00058531 46.7139 11905.7 16621.3 
203 0.0054 0.0054 0 0.00255718 0.00255718 -0.000507108 25.5718 4456.17 6308.97 
223 0.0076 0.0076 0 0.00391583 0.00391583 -0.000163807 39.1583 6199.21 7888.57 
243 0.0094 0.0094 0 0.00499623 0.00499623 4.75787e-05 49.9623 6646.79 9283.26 
263 0.0084 0.0084 0 0.00521872 0.00521872 0.000670521 52.1872 11155.8 13929.9 
283 0.0086 0.0086 0 0.00428568 0.00428568 0.000249663 42.8568 10448.3 16148.6 
303 0.0076 0.0076 0 0.00454106 0.00454106 -0.000237454 45.4106 8213.97 11053.3 
323 0.0006 0.0006 0 0.000283951 0.000283951 -2.96838e-05 34.188 7635.36 10478.4 
343 0.002 0.002 0 0.00022073 0.00022073 0.00017147 9.73 1277.53 4134.93 
363 0.001 0.001 0 0.000111836 0.000111836 -0.000198282 4.82261 989.949 1241.75 
383 0.001 0.001 0 8.54462e-05 8.54462e-05 -0.000182253 6.77627 544.77 1270.13 
403 0.0002 0.0002 0 9.7684e-05 9.7684e-05 -5.62085e-05 1.56785 251.645 61.6014 
423 0.0004 0.0004 0 0.000164634 0.000164634 -3.93282e-05 2.18582 1204.13 1721.44 
443 0.0008 0.0008 0 0.000105129 0.000105129 0.000157295 4.56425 1141.39 2410.05 
463 0.0004 0.0004 0 0.00017441 0.00017441 8.34707e-05 1.61872 320.121 387.901 
483 0.0014 0.0014 0 0.00020006 0.00020006 -5.79634e-06 6.93413 1419.77 1246.27 
503 0.0012 0.0012 0 0.000404777 0.000404777 0.000190569 5.45753 1897.82 2069.96 
523 0.0012 0.0012 0 0.000267228 0.000267228 -8.32785e-05 5.85076 1991.94 3782.9 
543 0.0006 0.0006 0 6.73001e-05 6.73001e-05 -7.3177e-05 3.9297 163.571 361.062 
563 0.001 0.001 0 0.000261716 0.000261716 -1.9382e-05 4.51466 885.396 906.326 
583 0.0008 0.0008 0 0.000222154 0.000222154 3.33643e-05 4.36443 1911.29 2258.34 
603 0.0004 0.0004 0 0.000103567 0.000103567 -2.55441e-05 1.41002 596.397 1098.84 
623 0.0006 0.0006 0 9.52211e-05 9.52211e-05 -4.64864e-05 2.71961 866.155 1162.49 
643 0 0 0 0 0 0 0 0 0 
663 0 0 0 0 0 0 0 0 0 
683 0 0 0 0 0 0 0 0 0 
703 0 0 0 0 0 0 0 0 0 
723 0.0002 0.0002 0 -6.77481e-05 -6.77481e-05 4.51055e-05 0.677481 148.361 -0.755651 
743 0 0 0 0 0 0 0 0 0 
763 0 0 0 0 0 0 0 0 0 
783 0 0 0 0 0 0 0 0 0 
803 0 0 0 0 0 0 0 0 0 
823 0 0 0 0 0 0 0 0 0 
843 0 0 0 0 0 0 0 0 0 
863 0 0 0 0 0 0 0 0 0 
883 0 0 0 0 0 0 0 0 0 
903 0 0 0 0 0 0 0 0 0 
923 0 0 0 0 0 0 0 0 0 
943 0 0 0 0 0 0 0 0 0 
963 0 0 0 0 0 0 0 0 0 
983 0.0002 0.0002 0 0.000108417 0.000108417 -7.66334e-05 0.94851 1195.88 1207.5 
1003 0.0004 0.0004 0 0.000135398 0.000135398 -9.87714e-06 1.38563 1121.58 961.913 
1023 0.0004 0.0004 0 0.000195381 0.000195381 5.40935e-05 1.66192 1371.63 1781.25 
1043 0.0006 0.0006 0 0.000168572 0.000168572 0.000114279 3.27421 607.286 805.416 
1063 0.001 0.001 0 0.000396643 0.000396643 -3.01708e-05 6.10764 4696.51 6182.13 
1083 0.0008 0.0008 0 0.000122961 0.000122961 0.000130869 3.83471 1486.17 2299.64 
1103 0.0002 0.0002 0 6.62478e-05 6.62478e-05 -4.00285e-05 0.717961 77.2197 636.545 
1123 0.0006 0.0006 0 0.000113818 0.000113818 1.81847e-05 3.73069 638.844 1128.5 
1143 0.001 0.001 0 0.000127857 0.000127857 0.000188079 4.30634 1377.74 1679 
1163 0.0016 0.0016 0 0.000422991 0.000422991 -0.000192185 7.98706 1103.05 1444.91 
1183 0.0012 0.0012 0 0.000136654 0.000136654 -0.00021441 4.69474 1793.87 2445.32 
1203 0.0012 0.0012 0 0.000249499 0.000249499 6.14772e-05 7.00648 1588.49 2563.8 
1223 0.0012 0.0012 0 0.000100866 0.000100866 -7.82645e-05 4.94904 1571.69 1543.21 
1243 0.0008 0.0008 0 0.000177555 0.000177555 -4.12372e-05 4.13751 316.542 1086.69 
1263 0.0006 0.0006 0 0.00016351 0.00016351 0.000129433 3.15104 2236.49 2553.69 
4 0.0002 0.0002 0 0.00010272 0.00010272 -0.000143711 14.628 10814.6 17658.5 
24 0.007 0.007 0 0.00418657 0.00418657 -0.000443234 41.8657 12678.5 17567.7 
44 0.009 0.009 0 0.00453478 0.00453478 -0.000327954 45.3478 8910.04 12582 
64 0.0088 0.0088 0 0.00505924 0.00505924 -0.000430659 50.5924 14388.7 17190.7 
84 0.0064 0.0064 0 0.00310913 0.00310913 0.000797874 31.0913 3933.74 5896.87 
104 0.0072 0.0072 0 0.00370266 0.00370266 -0.000589927 37.0266 3492.03 6237.95 
124 0.007 0.007 0 0.00392738 0.00392738 0.000121355 39.2738 7004.68 9489.44 
144 0.0092 0.0092 0 0.00520578 0.00520578 -0.000915305 52.0578 12650.4 20772.9 
164 0.0054 0.0054 0 0.00252286 0.00252286 0.000347372 25.2286 3535.34 5078.64 
184 0.0066 0.0066 0 0.0032113 0.0032113 0.000133474 32.113 2466.27 6075.15 
204 0.0094 0.0094 0 0.00508552 0.00508552 0.00064977 50.8552 9580.14 12024.6 
224 0.011 0.011 0 0.00554879 0.00554879 7.95592e-05 55.4879 6311.41 7869.1 
244 0.0072 0.0072 0 0.00401359 0.00401359 0.000466912 40.1359 3735.29 4822.41 
264 0.0082 0.0082 0 0.00455046 0.00455046 0.000124716 45.5046 7035.11 10715.4 
284 0.0072 0.0072 0 0.00380622 0.00380622 -0.000392608 38.0622 4511.72 7641.96 
304 0.01 0.01 0 0.00585087 0.00585087 -0.000416128 58.5087 8644.24 12482.5 
324 0 0 0 0 0 0 0 0 0 
344 0.0016 0.0016 0 0.000682147 0.000682147 5.5721e-05 9.17262 2975.91 4319.21 
364 0.0018 0.0018 0 0.000266668 0.000266668 -0.000128041 9.88916 3750.29 5460.2 
384 0.0012 0.0012 0 -2.40031e-05 -2.40031e-05 -0.000169406 6.74243 2090.69 3013.97 
404 0.0012 0.0012 0 9.08263e-05 9.08263e-05 -0.000284381 5.68735 2418.72 3025.56 
424 0.0008 0.0008 0 0.000139435 0.000139435 -1.3387e-05 3.875 601.779 51.3527 
444 0.0006 0.0006 0 0.000355181 0.000355181 -5.54207e-06 3.85208 1559.2 2637.39 
464 0.0008 0.0008 0 -0.000204911 -0.000204911 0.000118427 3.0727 443.147 1320.01 
484 0.0012 0.0012 0 0.000424305 0.000424305 -0.000202267 5.70254 3127.06 4765.27 
504 0.0018 0.0018 0 0.000249007 0.000249007 -0.000128687 10.1096 1952.03 2027.66 
524 0.0008 0.0008 0 0.000183315 0.000183315 9.52424e-05 3.27392 1570.78 4320.27 
544 0.0008 0.0008 0 0.000242199 0.000242199 -6.89082e-05 4.98732 1014.45 1128.51 
564 0.0002 0.0002 0 0.000103789 0.000103789 6.28382e-05 1.14077 581.54 580.623 
584 0.0006 0.0006 0 0.000103989 0.000103989 5.23764e-05 1.91071 542.786 841.752 
604 0.0014 0.0014 0 0.000169435 0.000169435 -7.18549e-05 7.30772 2033.58 1709.57 
624 0.001 0.001 0 0.000138854 0.000138854 3.8927e-05 5.91425 1747.7 1639.58 
644 0 0 0 0 0 0 0 0 0 
664 0 0 0 0 0 0 0 0 0 
684 0 0 0 0 0 0 0 0 0 
704 0 0 0 0 0 0 0 0 0 
724 0 0 0 0 0 0 0 0 0 
744 0 0 0 0 0 0 0 0 0 
764 0 0 0 0 0 0 0 0 0 
784 0 0 0 0 0 0 0 0 0 
804 0 0 0 0 0 0 0 0 0 
824 0 0 0 0 0 0 0 0 0 
844 0 0 0 0 0 0 0 0 0 
864 0 0 0 0 0 0 0 0 0 
884 0 0 0 0 0 0 0 0 0 
904 0 0 0 0 0 0 0 0 0 
924 0 0 0 0 0 0 0 0 0 
944 0 0 0 0 0 0 0 0 0 
964 0 0 0 0 0 0 0 0 0 
984 0.001 0.001 0 0.00018588 0.00018588 -8.31421e-05 6.70712 3221.28 3042.73 
1004 0.0014 0.0014 0 0.000381545 0.000381545 -3.33108e-05 8.16552 3434.6 3834.96 
1024 0.0006 0.0006 0 9.63844e-05 9.63844e-05 -8.84059e-06 3.83438 1145.32 1237.91 
1044 0.0004 0.0004 0 0.000164116 0.000164116 -0.000191451 1.59161 1166.91 1391.6 
1064 0.0008 0.0008 0 0.000119113 0.000119113 0.000132011 3.28113 1101.03 1746.84 
1084 0.001 0.001 0 0.000376561 0.000376561 9.05982e-06 5.59275 1329.96 1503.22 
1104 0.001 0.001 0 0.000467171 0.000467171 -0.000111111 5.75817 2058.18 1999.23 
1124 0.0012 0.0012 0 0.000204125 0.000204125 -0.000172661 6.46368 1363.13 2169.2 
1144 0.0008 0.0008 0 -4.77298e-05 -4.77298e-05 -0.000106505 3.72815 502.387 1048.17 
1164 0.0014 0.0014 0 0.000405565 0.000405565 -7.02098e-05 7.9539 1875.15 2236.09 
1184 0.001 0.001 0 0.000338859 0.000338859 0.000149813 5.3428 2718.45 3372.67 
1204 0.0006 0.0006 0 5.18644e-05 5.18644e-05 6.86676e-05 2.94796 55.9022 857.68 
1224 0.0014 0.0014 0 0.000247183 0.000247183 -0.000121302 6.39755 1086.87 2550.3 
1244 0.0022 0.0022 0 0.000585445 0.000585445 -0.000257865 11.2521 3865.81 4671.93 
1264 0.0004 0.0004 0 6.501e-05 6.501e-05 -0.000133087 1.19708 900.813 1557.51 
5 0.0004 0.0004 0 0.00030021 0.00030021 -0.000160327 24.4987 7145.59 16098.7 
25 0.0066 0.0066 0 0.00395906 0.00395906 7.50021e-05 39.5906 6932.54 9795.41 
45 0.0086 0.0086 0 0.00537985 0.00537985 0.000160057 53.7985 11264.2 18620.5 
65 0.0092 0.0092 0 0.00511654 0.00511654 1.64041e-05 51.1654 9181.76 16582.8 
85 0.007 0.007 0 0.0039114 0.0039114 -0.000182704 39.114 2681.57 6732.57 
105 0.006 0.006 0 0.00287618 0.00287618 -0.000218973 28.7618 5315.66 7882.35 
125 0.0098 0.0098 0 0.00541213 0.00541213 0.000541331 54.1213 6240.98 9679.84 
145 0.008 0.008 0 0.00417335 0.00417335 -0.000496079 41.7335 8951.1 10546.1 
165 0.0104 0.0104 0 0.0057355 0.0057355 -0.000126456 57.355 12339.6 17149.2 
185 0.0084 0.0084 0 0.00415411 0.00415411 0.000713451 41.5411 4588.18 4742.38 
205 0.0106 0.0106 0 0.00576352 0.00576352 -9.06685e-05 57.6352 10238.4 15695 
225 0.0076 0.0076 0 0.00403728 0.00403728 0.000286111 40.3728 5839.99 9596.51 
245 0.0084 0.0084 0 0.00424664 0.00424664 0.000339431 42.4664 5445.05 9092.47 
265 0.0098 0.0098 0 0.00535054 0.00535054 -2.61002e-05 53.5054 13283.7 16919 
285 0.0062 0.0062 0 0.00336878 0.00336878 0.000470701 33.6878 3880.79 6666.52 
305 0.0072 0.0072 0 0.00411858 0.00411858 -5.84167e-05 41.1858 6781.19 13662.6 
325 0.0002 0.0002 0 0.000157642 0.000157642 0.00013561 14.3295 14781 22263.1 
345 0.0008 0.0008 0 0.000322741 0.000322741 -0.000107146 3.16159 1654.76 2523.65 
365 0.001 0.001 0 0.00040623 0.00040623 -1.02992e-05 7.43225 418.26 1477.77 
385 0.0004 0.0004 0 -1.42481e-05 -1.42481e-05 9.37533e-05 2.72886 782.651 2261.92 
405 0.0004 0.0004 0 -6.13935e-05 -6.13935e-05 -4.91168e-05 1.67935 329.23 201.336 
425 0.0008 0.0008 0 0.000272706 0.000272706 4.8892e-05 4.30384 576.505 896.388 
445 0.0008 0.0008 0 1.19557e-05 1.19557e-05 8.96248e-05 4.81715 991.785 805.642 
465 0.0024 0.0024 0 0.000311019 0.000311019 -3.30817e-05 12.1346 4000.77 4503 
485 0.0006 0.0006 0 0.000222491 0.000222491 4.03954e-05 3.9933 1028.62 1961.16 
505 0.0016 0.0016 0 0.000218147 0.000218147 -0.000109837 9.53047 1950.94 3540.97 
525 0.0016 0.0016 0 0.000160663 0.000160663 7.45954e-05 7.30482 77.9377 879.094 
545 0.0008 0.0008 0 0.000156914 0.000156914 -7.63802e-05 3.21504 264.683 469.986 
565 0.0012 0.0012 0 0.000187563 0.000187563 -5.1784e-05 6.76933 768.797 1106.07 
585 0.0006 0.0006 0 0.000342044 0.000342044 -3.96865e-05 3.32343 3011.91 2954.9 
605 0.0008 0.0008 0 0.000277864 0.000277864 6.21929e-07 3.73112 1055.07 2183.88 
625 0.0002 0.0002 0 1.55132e-05 1.55132e-05 -1.70489e-05 0.946454 -165.2 -11.758 
645 0 0 0 0 0 0 0 0 0 
665 0 0 0 0 0 0 0 0 0 
685 0 0 0 0 0 0 0 0 0 
705 0 0 0 0 0 0 0 0 0 
725 0 0 0 0 0 0 0 0 0 
745 0 0 0 0 0 0 0 0 0 
765 0 0 0 0 0 0 0 0 0 
785 0 0 0 0 0 0 0 0 0 
805 0.0002 0.0002 0 -0.000110263 -0.000110263 -2.81235e-06 1.10263 -284.696 178.216 
825 0 0 0 0 0 0 0 0 0 
845 0 0 0 0 0 0 0 0 0 
865 0 0 0 0 0 0 0 0 0 
885 0 0 0 0 0 0 0 0 0 
905 0 0 0 0 0 0 0 0 0 
925 0 0 0 0 0 0 0 0 0 
945 0 0 0 0 0 0 0 0 0 
965 0 0 0 0 0 0 0 0 0 
985 0.0016 0.0016 0 0.000607313 0.000607313 9.76938e-06 10.4178 4056.55 4294.13 
1005 0.0006 0.0006 0 0.000112185 0.000112185 7.05151e-05 2.44632 1323.79 924.453 
1025 0.001 0.001 0 0.000438504 0.000438504 -0.000321338 5.86929 2151.04 2885.12 
1045 0.0014 0.0014 0 0.000336371 0.000336371 -3.36554e-05 6.92574 3184.54 5199.06 
1065 0.0008 0.0008 0 8.11412e-05 8.11412e-05 -6.87656e-05 3.39639 241.002 1098.73 
1085 0.0014 0.0014 0 0.000387238 0.000387238 -0.000180924 9.16931 204.373 1016.5 
1105 0.0004 0.0004 0 0 0 0 0.747144 0 0 
1125 0.0006 0.0006 0 0.000254334 0.000254334 -0.000189658 1.82381 1914.65 2552.58 
1145 0.0004 0.0004 0 0.000183022 0.000183022 6.0567e-05 1.28327 588.052 981.882 
1165 0.0008 0.0008 0 7.17441e-05 7.17441e-05 7.88228e-05 4.42454 1222.73 1700.25 
1185 0.001 0.001 0 0.000320794 0.000320794 -6.06503e-05 4.55134 1790.26 3314.09 
1205 0.0006 0.0006 0 -1.95208e-05 -1.95208e-05 -1.44834e-05 2.7037 49.5373 494.619 
1225 0.0008 0.0008 0 0.000127493 0.000127493 0.000241399 5.29192 2030.66 3344.81 
1245 0.0018 0.0018 0 7.50021e-05 7.50021e-05 0.000171482 7.42114 1721.33 2992.01 
1265 0.0004 0.0004 0 8.14791e-05 8.14791e-05 9.34891e-05 2.24084 195.274 274.754 
6 0.0002 0.0002 0 0.000198168 0.000198168 0.000159244 11.2716 11914.3 18304.4 
26 0.0058 0.0058 0 0.00338538 0.00338538 -6.53455e-05 33.8538 9491.81 12733.7 
46 0.0084 0.0084 0 0.00420849 0.00420849 -0.000651182 42.0849 9497.35 13142.5 
66 0.0052 0.0052 0 0.0027237 0.0027237 -0.00019015 27.237 6750.4 10239 
86 0.009 0.009 0 0.00505535 0.00505535 0.000366629 50.5535 8087.21 10689.6 
106 0.0086 0.0086 0 0.00425677 0.00425677 0.000102382 42.5677 6182.16 9556.16 
126 0.0092 0.0092 0 0.00478766 0.00478766 -5.37594e-05 47.8766 6904.87 9579.17 
146 0.006 0.006 0 0.00355275 0.00355275 3.24571e-05 35.5275 5659.43 7964.24 
166 0.008 0.008 0 0.00392281 0.00392281 -2.83722e-05 39.2281 6263.37 8694.5 
186 0.0092 0.0092 0 0.00482485 0.00482485 0.000178557 48.2485 8814.08 10578.9 
206 0.0102 0.0102 0 0.00506055 0.00506055 -0.000261506 50.6055 9092.51 12187.4 
226 0.007 0.007 0 0.00379312 0.00379312 -0.000318579 37.9312 7262.89 8393.92 
246 0.0068 0.0068 0 0.00336596 0.00336596 0.000286264 33.6596 5639.18 8420.97 
266 0.0068 0.0068 0 0.00294254 0.00294254 0.000469784 29.4254 5933.47 9255.37 
286 0.0058 0.0058 0 0.00279523 0.00279523 0.000312558 27.9523 5716.6 10311.1 
306 0.0092 0.0092 0 0.00522842 0.00522842 0.00011524 52.2842 15972.6 20672.1 
326 0 0 0 0 0 0 0 0 0 
346 0.0014 0.0014 0 0.000118173 0.000118173 -9.60753e-05 5.3014 1230.1 1628.39 
366 0.001 0.001 0 0.000327186 0.000327186 6.10683e-05 5.95769 1845.94 3765.19 
386 0.0002 0.0002 0 0 0 0 2.9641 0 0 
406 0.0008 0.0008 0 -9.49837e-05 -9.49837e-05 0.000127525 3.58646 -69.1996 73.7017 
426 0.002 0.002 0 0.000227486 0.000227486 1.39827e-05 7.66651 2573.55 4159.77 
446 0.001 0.001 0 0.000187781 0.000187781 9.60008e-05 4.87352 1584.82 1636.23 
466 0.0004 0.0004 0 5.07724e-05 5.07724e-05 3.11735e-05 1.53082 -80.0969 -24.526 
486 0.0008 0.0008 0 0.000116374 0.000116374 0.000244947 5.29345 1025.78 1352.52 
506 0.0006 0.0006 0 0.000182493 0.000182493 7.45036e-05 3.91395 935.413 1826.18 
526 0.0012 0.0012 0 0.000134218 0.000134218 -0.000121265 9.51293 1135.78 945.539 
546 0.001 0.001 0 6.12272e-05 6.12272e-05 -5.9669e-05 5.43837 578.104 1144.96 
566 0.001 0.001 0 0.000155632 0.000155632 1.28275e-06 5.40661 621.365 686.977 
586 0.0004 0.0004 0 0.000105174 0.000105174 7.79832e-05 1.34307 201.781 585.942 
606 0.0012 0.0012 0 0.000319413 0.000319413 0.000103263 7.74341 -673.701 -384.554 
626 0.0006 0.0006 0 0.000242192 0.000242192 -5.15394e-05 2.12618 1375.03 1470.12 
646 0 0 0 0 0 0 0 0 0 
666 0.0002 0.0002 0 -9.91745e-05 -9.91745e-05 1.05124e-05 0.991745 300.955 307.471 
686 0.0002 0.0002 0 -2.3383e-05 -2.3383e-05 7.02247e-05 0.23383 148.172 254.892 
706 0 0 0 0 0 0 0 0 0 
726 0 0 0 0 0 0 0 0 0 
746 0 0 0 0 0 0 0 0 0 
766 0 0 0 0 0 0 0 0 0 
786 0.0002 0.0002 0 -9.25357e-05 -9.25357e-05 6.69682e-05 0.925357 274.022 242.92 
806 0.0002 0.0002 0 -0.000122997 -0.000122997 1.9745e-05 1.22997 94.9767 263.433 
826 0 0 0 0 0 0 0 0 0 
846 0 0 0 0 0 0 0 0 0 
866 0 0 0 0 0 0 0 0 0 
886 0 0 0 0 0 0 0 0 0 
906 0.0002 0.0002 0 -7.0401e-05 -7.0401e-05 2.65864e-05 0.70401 109.329 857.621 
926 0 0 0 0 0 0 0 0 0 
946 0 0 0 0 0 0 0 0 0 
966 0 0 0 0 0 0 0 0 0 
986 0.0006 0.0006 0 0.000211822 0.000211822 1.02965e-05 4.35033 1243.53 1642.4 
1006 0.0008 0.0008 0 0.000328563 0.000328563 -5.46022e-05 5.59262 4138.89 4319.67 
1026 0.001 0.001 0 0.000245167 0.000245167 7.37441e-05 4.37561 964.703 1064.16 
1046 0.001 0.001 0 0.000235058 0.000235058 -4.35171e-05 4.58592 1245.48 1398.19 
1066 0.0008 0.0008 0 1.0211e-07 1.0211e-07 7.1177e-05 5.09714 1097.46 1727.91 
1086 0.0004 0.0004 0 4.12411e-05 4.12411e-05 -4.26608e-05 2.12774 395.825 318.43 
1106 0.0004 0.0004 0 0.000174319 0.000174319 0.000173501 2.40753 1509.81 1753.06 
1126 0.0012 0.0012 0 0.000359284 0.000359284 3.64208e-05 6.82756 2597.43 4971.57 
1146 0.001 0.001 0 0.000319001 0.000319001 0.000125739 4.16498 1861.39 3567.58 
1166 0.0002 0.0002 0 0 0 0 0.921225 0 0 
1186 0.0008 0.0008 0 0.000223848 0.000223848 8.73042e-06 5.51736 2668.23 2729.03 
1206 0.0014 0.0014 0 0.000601252 0.000601252 2.49951e-05 8.05736 3575.62 4137.92 
1226 0.0006 0.0006 0 6.93359e-05 6.93359e-05 0.000101801 3.85405 563.755 1013.16 
1246 0.0008 0.0008 0 0.000158137 0.000158137 -5.52891e-05 5.34571 1859.28 2129.91 
1266 0.0006 0.0006 0 0.000212497 0.000212497 -3.06844e-06 2.5797 1397.25 1586.1 
7 0 0 0 0 0 0 0 0 0 
27 0.0076 0.0076 0 0.00412386 0.00412386 0.000616106 41.2386 9505.79 11968.2 
47 0.01 0.01 0 0.00561621 0.00561621 0.000313597 56.1621 12446 17346.9 
67 0.0058 0.0058 0 0.00390473 0.00390473 -0.000208914 39.0473 6061.93 7913.09 
87 0.0076 0.0076 0 0.00370088 0.00370088 -1.48826e-05 37.0088 4358.24 7435.15 
107 0.0088 0.0088 0 0.00496823 0.00496823 -0.000394671 49.6823 4623.58 5622.06 
127 0.0114 0.0114 0 0.00573028 0.00573028 0.000518261 57.3028 7959.41 12530.3 
147 0.007 0.007 0 0.00377709 0.00377709 -0.000297704 37.7709 7394.48 9816.06 
167 0.01 0.01 0 0.00474985 0.00474985 -0.000132813 47.4985 5154.47 10289 
187 0.0086 0.0086 0 0.00462685 0.00462685 0.000206871 46.2685 8312.63 8581.42 
207 0.007 0.007 0 0.00357521 0.00357521 4.34925e-05 35.7521 5983.32 7642.73 
227 0.0074 0.0074 0 0.00397463 0.00397463 0.000349678 39.7463 3321.83 7472.36 
247 0.0082 0.0082 0 0.00510962 0.00510962 7.81273e-05 51.0962 10791.8 16817 
267 0.0072 0.0072 0 0.00441005 0.00441005 -0.000624751 44.1005 11547.9 14986.7 
287 0.0076 0.0076 0 0.00430591 0.00430591 2.08704e-05 43.0591 7258.05 11957.6 
307 0.0076 0.0076 0 0.00408797 0.00408797 -9.43928e-05 40.8797 10170.2 16642 
327 0.0002 0.0002 0 5.97903e-05 5.97903e-05 -2.64784e-05 6.89858 -1145.49 -2902.87 
347 0.0006 0.0006 0 0.000127661 0.000127661 4.08835e-05 2.49998 1460.75 1434.22 
367 0.0012 0.0012 0 0.000284026 0.000284026 -4.36365e-05 8.11004 3844.57 4381.58 
387 0.0008 0.0008 0 0.000136552 0.000136552 -4.59223e-07 3.17558 524.317 595.864 
407 0.0008 0.0008 0 8.21328e-05 8.21328e-05 1.23535e-05 4.11989 419.212 374.767 
427 0.001 0.001 0 9.85588e-05 9.85588e-05 4.66893e-05 3.12596 325.128 415.395 
447 0.0006 0.0006 0 4.25377e-05 4.25377e-05 -0.000124053 2.44536 257.28 111.639 
467 0.0004 0.0004 0 0.000130974 0.000130974 2.38729e-05 1.36995 -79.2331 668.394 
487 0.0006 0.0006 0 0.000107426 0.000107426 -5.73988e-05 2.70655 395.803 473.843 
507 0.0004 0.0004 0 -4.65042e-06 -4.65042e-06 2.58905e-05 2.15832 611.971 611.448 
527 0.0004 0.0004 0 3.44665e-05 3.44665e-05 -0.000126171 2.47341 1421.3 2265.54 
547 0.0006 0.0006 0 0.000197635 0.000197635 8.7949e-05 2.71833 1157.56 1556.1 
567 0.0004 0.0004 0 0 0 0 2.38766 5.05557e-13 5.05557e-13 
587 0.0004 0.0004 0 0.000120148 0.000120148 -3.20112e-05 3.97234 86.4014 162.968 
607 0.0008 0.0008 0 0.000294647 0.000294647 -4.71785e-05 4.3568 747.708 1046.38 
627 0.0004 0.0004 0 0.000190211 0.000190211 9.92552e-06 2.10658 848.609 1715.6 
647 0 0 0 0 0 0 0 0 0 
667 0 0 0 0 0 0 0 0 0 
687 0 0 0 0 0 0 0 0 0 
707 0 0 0 0 0 0 0 0 0 
727 0 0 0 0 0 0 0 0 0 
747 0 0 0 0 0 0 0 0 0 
767 0 0 0 0 0 0 0 0 0 
787 0 0 0 0 0 0 0 0 0 
807 0 0 0 0 0 0 0 0 0 
827 0 0 0 0 0 0 0 0 0 
847 0 0 0 0 0 0 0 0 0 
867 0 0 0 0 0 0 0 0 0 
887 0 0 0 0 0 0 0 0 0 
907 0 0 0 0 0 0 0 0 0 
927 0 0 0 0 0 0 0 0 0 
947 0 0 0 0 0 0 0 0 0 
967 0 0 0 0 0 0 0 0 0 
987 0.0006 0.0006 0 0.000172365 0.000172365 0.000143448 4.45792 1793.71 2773.44 
1007 0.0008 0.0008 0 9.26129e-05 9.26129e-05 -2.81191e-05 4.00306 1235.71 1052.77 
1027 0.001 0.001 0 0.000195168 0.000195168 -0.000316548 5.05918 2056.68 2528.72 
1047 0.001 0.001 0 0.000202356 0.000202356 6.2408e-06 4.82468 1214.11 1223.38 
1067 0.0012 0.0012 0 0.000304921 0.000304921 8.09523e-05 6.24824 2203.76 3096.59 
1087 0.0004 0.0004 0 0.000192766 0.000192766 8.35933e-05 2.10464 649.264 403.957 
1107 0.0002 0.0002 0 0.000122915 0.000122915 -4.75412e-05 2.17483 -4.66682 15.6193 
1127 0.001 0.001 0 0.000253144 0.000253144 3.91527e-05 4.00424 2293.37 4317.22 
1147 0.001 0.001 0 0.000362522 0.000362522 -0.000122284 5.5639 3130.14 4580.22 
1167 0.0004 0.0004 0 0.000201818 0.000201818 -0.000153842 2.16273 1820.98 1902 
1187 0.0008 0.0008 0 0.000249636 0.000249636 0.000151379 4.48187 2037.17 1629.63 
1207 0.0004 0.0004 0 0.000102616 0.000102616 -6.33158e-05 2.1069 138.162 458.901 
1227 0.0012 0.0012 0 0.000190852 0.000190852 0.000123749 8.5106 3912.83 4002.18 
1247 0.0014 0.0014 0 0.00011884 0.00011884 -0.000321944 7.07307 2215.22 3772.78 
1267 0.001 0.001 0 9.86589e-05 9.86589e-05 6.25152e-05 5.14075 254.863 1004.64 
8 0 0 0 0 0 0 0 0 0 
28 0.0054 0.0054 0 0.00283622 0.00283622 0.000739592 28.3622 7717.68 10738.8 
48 0.0082 0.0082 0 0.00405655 0.00405655 0.000395014 40.5655 4748.62 10020.3 
68 0.0088 0.0088 0 0.00519381 0.00519381 4.90989e-05 51.9381 11874.5 17360.3 
88 0.0076 0.0076 0 0.00475365 0.00475365 0.000649369 47.5365 10311.3 14277.6 
108 0.0102 0.0102 0 0.00569118 0.00569118 0.000454806 56.9118 14021.9 17051.6 
128 0.0096 0.0096 0 0.00545785 0.00545785 -0.000401215 54.5785 7089.58 10073.5 
148 0.0066 0.0066 0 0.00375011 0.00375011 -5.53813e-05 37.5011 5656.3 10382.9 