ITEM: TIMESTEP
25000
ITEM: NUMBER OF SURFS
1272
ITEM: BOX BOUNDS oo rr pp
0 0.3
0 0.3
-0.5 0.5
ITEM: SURFS id f_4[1] f_4[2] f_4[3] f_4[4] f_4[5] f_4[6] f_4[7] f_4[8] f_4[9] 
1 0 0 0 0 0 0 0 0 0 
41 0.0074 0.0074 0 0.035367 0.035367 -0.00552729 353.67 56994.5 83783.5 
81 0.0074 0.0074 0 0.0377001 0.0377001 0.000154296 377.001 52296.7 63539.7 
121 0.009 0.009 0 0.0474794 0.0474794 0.00298218 474.794 58649.1 84097.7 
161 0.0092 0.0092 0 0.0505956 0.0505956 -0.000494836 505.956 74683.1 91711.9 
201 0.0074 0.0074 0 0.0357136 0.0357136 0.00574839 357.136 42373.6 64197.8 
241 0.0068 0.0068 0 0.0345106 0.0345106 0.00190919 345.106 40194 62841.1 
281 0.0072 0.0072 0 0.0381367 0.0381367 0.00661623 381.367 26442.5 47216.8 
321 0.0004 0.0004 0 0.00240055 0.00240055 -0.000543826 236.928 7409.49 22810.5 
361 0.0012 0.0012 0 0.00374033 0.00374033 -0.000396634 56.9751 21165.2 21848.2 
401 0.0008 0.0008 0 0.00245371 0.00245371 -0.000175822 35.3802 16126.3 19231.8 
441 0.0006 0.0006 0 0.00171575 0.00171575 0.000735229 30.3286 17420.9 17081.7 
481 0.001 0.001 0 0.000420486 0.000420486 0.000639433 47.3431 -879.909 9140.38 
521 0.0008 0.0008 0 0.000159422 0.000159422 -0.00100501 47.6354 4844.89 11871.2 
561 0.0018 0.0018 0 0.00217596 0.00217596 -0.000808919 63.8683 7637.16 14673.2 
601 0.0008 0.0008 0 0.00141974 0.00141974 -0.000176566 20.3252 5119.01 6635.55 
641 0 0 0 0 0 0 0 0 0 
681 0.0002 0.0002 0 -0.000389931 -0.000389931 0.00100775 3.89931 1006.72 5308.77 
721 0.0002 0.0002 0 -0.000925882 -0.000925882 0.000516764 9.25882 3074.26 3686.64 
761 0 0 0 0 0 0 0 0 0 
801 0 0 0 0 0 0 0 0 0 
841 0.0002 0.0002 0 -0.00138248 -0.00138248 -0.000444 13.8248 -3394.09 -3772.28 
881 0.0002 0.0002 0 -0.000242817 -0.000242817 0 2.42817 0 0 
921 0 0 0 0 0 0 0 0 0 
961 0 0 0 0 0 0 0 0 0 
1001 0.0014 0.0014 0 0.00256487 0.00256487 -0.000734862 84.9489 7526.93 14828 
1041 0.0008 0.0008 0 0.00126012 0.00126012 -0.00112427 42.9742 7770.08 9069.34 
1081 0.0008 0.0008 0 0.000641027 0.000641027 0.00103616 27.7219 8185.53 8732.32 
1121 0.0006 0.0006 0 0.00156977 0.00156977 0.000308539 27.4875 6427.75 13261.2 
1161 0.0002 0.0002 0 -0.000672678 -0.000672678 0.0014005 10.6496 -6252.74 -5702.19 
1201 0.002 0.002 0 -6.4938e-05 -6.4938e-05 -0.000325361 113.208 18734.2 27969 
1241 0.0016 0.0016 0 0.00215178 0.00215178 0.00105607 70.8155 -2892.45 -2608.42 
2 0 0 0 0 0 0 0 0 0 
42 0.0118 0.0118 0 0.0561297 0.0561297 -0.000706712 561.297 89117 117596 
82 0.0062 0.0062 0 0.0291396 0.0291396 -0.00198214 291.396 32089.8 41626 
122 0.0082 0.0082 0 0.0399195 0.0399195 -0.00649088 399.195 47390.2 96557.9 
162 0.0078 0.0078 0 0.0364744 0.0364744 0.00177783 364.744 38365.8 65286.2 
202 0.0116 0.0116 0 0.056073 0.056073 4.34074e-06 560.73 58980.2 81303.2 
242 0.0078 0.0078 0 0.0416548 0.0416548 0.00184839 416.548 75718.1 82416.4 
282 0.0068 0.0068 0 0.0330375 0.0330375 -0.0044695 330.375 30619.9 47817.2 
322 0 0 0 0 0 0 0 0 0 
362 0.0006 0.0006 0 0.00122971 0.00122971 -0.000578142 30.3267 3575.16 1593.96 
402 0.0006 0.0006 0 0.00010919 0.00010919 -0.00201247 26.2913 7687.26 7984.49 
442 0.0012 0.0012 0 0.000994248 0.000994248 -0.000196577 81.3458 13157.3 18721.6 
482 0.0012 0.0012 0 0.00228583 0.00228583 -4.40073e-05 66.9418 16267.7 17108.7 
522 0.0016 0.0016 0 0.0013824 0.0013824 -0.000269996 94.7543 20114.4 29307 
562 0.001 0.001 0 0.000616857 0.000616857 -0.00145747 39.9423 5166.62 4889.43 
602 0.0004 0.0004 0 -0.000289595 -0.000289595 0.000172931 21.986 1495.02 1673.28 
642 0 0 0 0 0 0 0 0 0 
682 0 0 0 0 0 0 0 0 0 
722 0 0 0 0 0 0 0 0 0 
762 0.0004 0.0004 0 -0.00193179 -0.00193179 -3.04922e-05 19.3179 1356.55 5165.62 
802 0.0002 0.0002 0 -0.000765894 -0.000765894 -0.000477544 7.65894 657.16 -771.052 
842 0 0 0 0 0 0 0 0 0 
882 0 0 0 0 0 0 0 0 0 
922 0 0 0 0 0 0 0 0 0 
962 0 0 0 0 0 0 0 0 0 
1002 0.0004 0.0004 0 0.000738313 0.000738313 0.000759199 27.9014 13653.8 13747 
1042 0.0012 0.0012 0 0.00147142 0.00147142 0.00117523 50.8732 3630.34 293.785 
1082 0.0012 0.0012 0 0.00200254 0.00200254 -0.000309211 52.4634 9250.08 9069.96 
1122 0.0008 0.0008 0 0.00127191 0.00127191 -0.000839038 42.7815 3586.06 7018.5 
1162 0.0008 0.0008 0 0.00231536 0.00231536 -0.000164608 59.6613 2765.98 4058.44 
1202 0.001 0.001 0 0.00103564 0.00103564 0.00018237 40.4523 -1846.22 5078.78 
1242 0.0004 0.0004 0 0.0011057 0.0011057 0.000642134 20.8682 5155.75 6047.49 
3 0 0 0 0 0 0 0 0 0 
43 0.0056 0.0056 0 0.0286616 0.0286616 1.31317e-05 286.616 29832.3 59023.5 
83 0.0076 0.0076 0 0.0358543 0.0358543 -0.0043995 358.543 39071.9 57074.1 
123 0.0086 0.0086 0 0.0463669 0.0463669 -0.0036294 463.669 52618.8 81826.1 
163 0.0084 0.0084 0 0.0418889 0.0418889 -0.00229605 418.889 50530.7 79000.4 
203 0.0076 0.0076 0 0.0363593 0.0363593 0.00308978 363.593 40428 68313.2 
243 0.0064 0.0064 0 0.0368079 0.0368079 0.00360749 368.079 30741.9 47412.2 
283 0.006 0.006 0 0.0254417 0.0254417 -0.00188302 254.417 6380.14 18869.5 
323 0.0002 0.0002 0 0.00114825 0.00114825 0 136.414 1.83987e-11 1.83987e-11 
363 0.0008 0.0008 0 0.00173347 0.00173347 -0.000483865 24.7521 10196.2 13992.5 
403 0.0006 0.0006 0 0.00207404 0.00207404 -0.00125081 34.7816 4894.62 7184.76 
443 0.0008 0.0008 0 -9.85034e-05 -9.85034e-05 -0.000658588 48.2169 399.114 1874.48 
483 0.0004 0.0004 0 -0.000892316 -0.000892316 -0.000459752 17.9826 -1242.62 -807.928 
523 0.0002 0.0002 0 0.000719898 0.000719898 -0.000832324 8.52099 6155.38 5970.09 
563 0.0008 0.0008 0 0.00416273 0.00416273 -0.00205403 49.9308 13576.9 12066.6 
603 0.0008 0.0008 0 0.00137276 0.00137276 -0.000416175 33.7948 6760.21 8365.41 
643 0.0002 0.0002 0 0.000243764 0.000243764 -0.000915391 106.772 57573.7 91586.7 
683 0 0 0 0 0 0 0 0 0 
723 0 0 0 0 0 0 0 0 0 
763 0 0 0 0 0 0 0 0 0 
803 0.0002 0.0002 0 -0.00104712 -0.00104712 -0.00042134 10.4712 662.595 730.85 
843 0 0 0 0 0 0 0 0 0 
883 0.0002 0.0002 0 -0.00122258 -0.00122258 -0.000311066 12.2258 -938.276 907.785 
923 0.0002 0.0002 0 -0.00138141 -0.00138141 8.09887e-05 13.8141 -725.526 1395.7 
963 0 0 0 0 0 0 0 0 0 
1003 0.0004 0.0004 0 0.00125081 0.00125081 0.00119401 20.407 10160.2 8309.25 
1043 0.0006 0.0006 0 0.00126268 0.00126268 0.000765497 35.4653 326.403 4714.03 
1083 0.0012 0.0012 0 0.00290188 0.00290188 0.000417755 48.009 3446.49 4289.92 
1123 0.0002 0.0002 0 0.000439217 0.000439217 0.000528217 12.9289 585.762 1737.83 
1163 0.0006 0.0006 0 0.000950047 0.000950047 -0.000641749 19.9382 6064.64 8863.51 
1203 0.0018 0.0018 0 -0.00109903 -0.00109903 -0.00077602 99.1277 4772.64 4179 
1243 0.0012 0.0012 0 0.00186544 0.00186544 0.000433745 54.1285 606.259 6109.66 
4 0 0 0 0 0 0 0 0 0 
44 0.0094 0.0094 0 0.0491236 0.0491236 -0.00247893 491.236 60479.8 77861.3 
84 0.014 0.014 0 0.0699155 0.0699155 0.00202466 699.155 99268 125698 
124 0.0054 0.0054 0 0.0243509 0.0243509 -0.00318443 243.509 28474.8 37436.1 
164 0.0106 0.0106 0 0.0537014 0.0537014 0.00222884 537.014 59626.3 96030.3 
204 0.0064 0.0064 0 0.0310262 0.0310262 0.00161382 310.262 47766 67002.2 
244 0.0066 0.0066 0 0.0368842 0.0368842 -0.00250262 368.842 41975.8 67766 
284 0.0076 0.0076 0 0.0353186 0.0353186 -0.0042981 353.186 55070.8 69230.8 
324 0.0006 0.0006 0 0.00259198 0.00259198 0.00190199 239.638 43433.5 81847.1 
364 0.0008 0.0008 0 0.00101174 0.00101174 0.000761541 38.2334 2667.96 4912.5 
404 0.001 0.001 0 0.00365267 0.00365267 0.000996838 43.6839 11023.2 13387.2 
444 0.0014 0.0014 0 0.0024761 0.0024761 0.00176209 64.4495 16378.4 13960.1 
484 0.0012 0.0012 0 0.000771765 0.000771765 -0.00262268 41.4809 7670.82 11847.9 
524 0.0022 0.0022 0 0.00220513 0.00220513 0.000180114 122.855 13053.9 14800.6 
564 0.0002 0.0002 0 0.00066367 0.00066367 0.000661208 5.34206 2004.94 88.2696 
604 0.0016 0.0016 0 0.0017608 0.0017608 -0.000908772 83.7284 6004.15 13214.3 
644 0 0 0 0 0 0 0 0 0 
684 0 0 0 0 0 0 0 0 0 
724 0.0002 0.0002 0 -0.00103348 -0.00103348 0.000704589 10.3348 3841.86 2166.06 
764 0.0004 0.0004 0 -0.00182774 -0.00182774 -0.000427013 18.2774 172.056 993.624 
804 0 0 0 0 0 0 0 0 0 
844 0.0006 0.0006 0 -0.00196757 -0.00196757 0.000662192 19.6757 4642.47 4682.25 
884 0 0 0 0 0 0 0 0 0 
924 0 0 0 0 0 0 0 0 0 
964 0 0 0 0 0 0 0 0 0 
1004 0.0012 0.0012 0 -0.000151049 -0.000151049 -0.000387555 62.9754 -1884.38 3391.55 
1044 0.0006 0.0006 0 0.000332398 0.000332398 0.00254604 30.8734 -4094.12 -1390.23 
1084 0.0014 0.0014 0 0.00149579 0.00149579 0.000835399 69.5871 10508.4 10826.6 
1124 0.0008 0.0008 0 -0.000268305 -0.000268305 0.000503716 40.6153 7601 12855.9 
1164 0.0008 0.0008 0 0.00112432 0.00112432 2.58745e-05 28.9257 2713.6 8111.16 
1204 0.0002 0.0002 0 0 0 0 2.14596 0 0 
1244 0.0012 0.0012 0 0.000143768 0.000143768 -0.00160595 75.9614 10043.7 6699.53 
5 0.0004 0.0004 0 0.000378945 0.000378945 -0.00178352 151.602 48432.3 55135.7 
45 0.008 0.008 0 0.0377428 0.0377428 0.00304023 377.428 48244.9 76116.2 
85 0.01 0.01 0 0.0555115 0.0555115 0.00604125 555.115 92098.2 116890 
125 0.0108 0.0108 0 0.0568975 0.0568975 -0.0006772 568.975 101017 151780 
165 0.0104 0.0104 0 0.0499639 0.0499639 -0.00124401 499.639 66319.7 78345.2 
205 0.0122 0.0122 0 0.0574727 0.0574727 0.00518301 574.727 48678.3 63352.3 
245 0.0106 0.0106 0 0.0519424 0.0519424 1.31967e-05 519.424 50937.2 65164.3 
285 0.0058 0.0058 0 0.0247852 0.0247852 0.00538542 247.852 49101.3 51142.6 
325 0.0002 0.0002 0 0.00118779 0.00118779 0.000119848 107.987 40193.8 37389.3 
365 0.001 0.001 0 -0.000125722 -0.000125722 -0.00148255 48.5523 5966.47 3970.83 
405 0.0008 0.0008 0 -0.00111058 -0.00111058 0.000753589 38.5241 -1522.26 -2898.07 
445 0.001 0.001 0 0.00104352 0.00104352 0.0006218 57.292 3648.99 9361.12 
485 0.002 0.002 0 0.00230977 0.00230977 0.000961908 90.3708 25081.9 29729.8 
525 0.0006 0.0006 0 0.000657591 0.000657591 0.00108831 38.8302 5007.16 3442.08 
565 0.001 0.001 0 0.00210289 0.00210289 0.00117059 51.3385 12525.1 18664.5 
605 0.0012 0.0012 0 0.00198111 0.00198111 -0.00147849 52.9744 9953.16 10081.4 
645 0 0 0 0 0 0 0 0 0 
685 0.0002 0.0002 0 -0.00103107 -0.00103107 -0.000165228 10.3107 919.371 -1065.3 
725 0.0002 0.0002 0 -0.00167885 -0.00167885 0.000509043 16.7885 10505.6 10217.7 
765 0.0002 0.0002 0 -0.00122443 -0.00122443 -0.000428198 12.2443 915.192 -129.277 
805 0.0002 0.0002 0 -0.00113995 -0.00113995 -1.44408e-06 11.3995 2710.57 3008.08 
845 0 0 0 0 0 0 0 0 0 
885 0 0 0 0 0 0 0 0 0 
925 0 0 0 0 0 0 0 0 0 
965 0.0002 0.0002 0 -0.000345462 -0.000345462 0.000599779 132.398 81964.8 129128 
1005 0.0006 0.0006 0 3.78532e-05 3.78532e-05 -0.000445241 22.3347 3042.15 9657.67 
1045 0.0006 0.0006 0 -0.000182009 -0.000182009 -6.85451e-05 32.6762 2945.87 5393.72 
1085 0.0018 0.0018 0 0.000380427 0.000380427 -0.000954196 83.4064 8667.06 11257.6 
1125 0.001 0.001 0 -5.47244e-05 -5.47244e-05 -0.000487971 62.39 3865.8 9050.39 
1165 0.0006 0.0006 0 0.00183155 0.00183155 0.000431863 29.2904 9041.52 11223.8 
1205 0.001 0.001 0 0.000951456 0.000951456 0.000394799 37.227 7716.46 10759.9 
1245 0.001 0.001 0 0.00120827 0.00120827 -0.000411668 46.6345 5218.9 9526.21 
6 0.0006 0.0006 0 0.00259473 0.00259473 0.00249411 187.254 54119.4 62253.3 
46 0.0068 0.0068 0 0.0359268 0.0359268 0.00115075 359.268 42820.4 61807.3 
86 0.0094 0.0094 0 0.0425138 0.0425138 0.00390431 425.138 65119.1 101999 
126 0.0124 0.0124 0 0.0601507 0.0601507 -0.000623519 601.507 49678.9 88440.4 
166 0.0078 0.0078 0 0.0408135 0.0408135 0.00163193 408.135 29860.9 49688.1 
206 0.006 0.006 0 0.0294636 0.0294636 0.00406442 294.636 34721.4 46432 
246 0.0072 0.0072 0 0.0409424 0.0409424 0.00150125 409.424 49196.8 59694.2 
286 0.0124 0.0124 0 0.0626053 0.0626053 -0.000921765 626.053 89865 130539 
326 0.0004 0.0004 0 0.00150515 0.00150515 -0.000618694 114.176 48867.7 79078 
366 0.0014 0.0014 0 0.000442969 0.000442969 0.00269478 71.2249 4996.34 9109.68 
406 0.0004 0.0004 0 0.00029072 0.00029072 -0.000313253 20.2861 2935.85 2394.34 
446 0.0016 0.0016 0 0.0014138 0.0014138 -0.00064298 54.84 4205.85 4123.95 
486 0 0 0 0 0 0 0 0 0 
526 0.0016 0.0016 0 0.00182845 0.00182845 0.00226323 72.5313 -846.769 -1203.59 
566 0.0004 0.0004 0 0.000363256 0.000363256 -0.000693293 13.0707 948.941 1181.61 
606 0.001 0.001 0 0.00292545 0.00292545 0.000383457 46.5229 7605.61 10998 
646 0 0 0 0 0 0 0 0 0 
686 0 0 0 0 0 0 0 0 0 
726 0 0 0 0 0 0 0 0 0 
766 0 0 0 0 0 0 0 0 0 
806 0.0006 0.0006 0 -0.00285915 -0.00285915 0.000135702 28.5915 4483.45 8004.26 
846 0.0002 0.0002 0 -0.00087975 -0.00087975 0.000335882 8.7975 823.649 910.642 
886 0 0 0 0 0 0 0 0 0 
926 0.0002 0.0002 0 -0.00122585 -0.00122585 0.000962363 12.2585 5056.76 5703.66 
966 0.0002 0.0002 0 0.000730107 0.000730107 -0.000777924 110.248 88260.6 129658 
1006 0.0006 0.0006 0 -0.000844213 -0.000844213 -0.00137413 37.268 6153.51 6851.02 
1046 0.0006 0.0006 0 -3.64153e-05 -3.64153e-05 -0.000791721 35.838 8784.77 8642.64 
1086 0.0012 0.0012 0 -0.00053557 -0.00053557 -0.00113394 71.9673 -3282.36 767.533 
1126 0.0008 0.0008 0 0.000884184 0.000884184 0.00034478 40.6063 3895.44 2292.29 
1166 0.0008 0.0008 0 0.00183978 0.00183978 -0.00122078 40.8021 10088.7 10013 
1206 0.0006 0.0006 0 0.00151522 0.00151522 0.000728849 36.8474 3438.53 4968.51 
1246 0.0008 0.0008 0 0.00176176 0.00176176 -0.000857748 30.9787 7566.05 15200.5 
7 0 0 0 0 0 0 0 0 0 
47 0.011 0.011 0 0.060617 0.060617 -0.000400486 606.17 66666.3 88724.2 
87 0.0092 0.0092 0 0.0484031 0.0484031 -0.00121579 484.031 65098.4 96924.9 
127 0.009 0.009 0 0.0483921 0.0483921 -0.00141338 483.921 79299.1 119853 
167 0.0094 0.0094 0 0.051851 0.051851 -0.00361646 518.51 65204.4 106819 
207 0.009 0.009 0 0.0435666 0.0435666 0.00645743 435.666 68346.9 104001 
247 0.0048 0.0048 0 0.0251845 0.0251845 -0.00116374 251.845 28160.5 31819.3 
287 0.0106 0.0106 0 0.0564807 0.0564807 -0.00097862 564.807 99452 130123 
327 0.0004 0.0004 0 0.00169274 0.00169274 -0.00029109 261.446 25319.9 10496.2 
367 0.001 0.001 0 0.00260436 0.00260436 -0.000501328 37.9833 5911.64 6088.68 
407 0.001 0.001 0 0.00137318 0.00137318 0.00100289 50.1461 9604.93 10049.4 
447 0.001 0.001 0 0.00128223 0.00128223 0.000172027 54.3205 10601.5 9786.11 
487 0.001 0.001 0 -7.11323e-05 -7.11323e-05 -0.00064198 58.1094 6896.32 7180.2 
527 0.0006 0.0006 0 0.000294665 0.000294665 -0.00195545 26.8025 12227.7 13444.5 
567 0.0014 0.0014 0 0.00142125 0.00142125 0.00132732 58.3239 7510.57 11974.3 
607 0.0004 0.0004 0 0.000201878 0.000201878 -0.000808751 18.6776 631.788 940.796 
647 0 0 0 0 0 0 0 0 0 
687 0.0004 0.0004 0 -0.00266768 -0.00266768 -0.000780296 26.6768 12892.2 15145.4 
727 0.0004 0.0004 0 -0.00164565 -0.00164565 -0.0012061 16.4565 845.938 386.657 
767 0.0006 0.0006 0 -0.00279477 -0.00279477 0.000631328 27.9477 -3395.78 -2322.25 
807 0.0004 0.0004 0 -0.00215336 -0.00215336 0 21.5336 4.15279e-12 4.15279e-12 
847 0 0 0 0 0 0 0 0 0 
887 0 0 0 0 0 0 0 0 0 
927 0 0 0 0 0 0 0 0 0 
967 0 0 0 0 0 0 0 0 0 
1007 0.0006 0.0006 0 0.00112543 0.00112543 0.000352317 22.8803 8467.98 12828.8 
1047 0.0012 0.0012 0 0.0014181 0.0014181 0.000888504 64.222 -5696.51 -4353.45 
1087 0.0006 0.0006 0 0.00138718 0.00138718 0.000914474 24.1932 5783.86 3670.79 
1127 0.001 0.001 0 -0.00105101 -0.00105101 -0.000372534 57.3239 5400.04 5650.94 
1167 0.0014 0.0014 0 0.000657956 0.000657956 0.00203385 90.7643 7544.25 8694.4 
1207 0.0006 0.0006 0 0.000180505 0.000180505 -0.000193143 41.9665 4045.16 3211.07 
1247 0.0018 0.0018 0 0.000759466 0.000759466 -0.00213481 81.6772 11883.4 13066.7 
8 0 0 0 0 0 0 0 0 0 
48 0.0088 0.0088 0 0.0468574 0.0468574 0.00372394 468.574 103294 117669 
88 0.008 0.008 0 0.0423468 0.0423468 -0.00299456 423.468 36477.9 82830.7 
128 0.009 0.009 0 0.0450531 0.0450531 -0.00157575 450.531 32573.1 58135.3 
168 0.0102 0.0102 0 0.0512919 0.0512919 0.00164553 512.919 67291.7 84853.8 
208 0.0078 0.0078 0 0.0337323 0.0337323 0.00201413 337.323 43553.9 63844.2 
248 0.0098 0.0098 0 0.0423539 0.0423539 -0.0005919 423.539 71999 88048.6 
288 0.0058 0.0058 0 0.0317528 0.0317528 0.000203387 317.528 40018.2 64132.2 
328 0 0 0 0 0 0 0 0 0 
368 0.0008 0.0008 0 0.000735078 0.000735078 -0.0016544 27.8226 3903.41 -1058.23 
408 0.0016 0.0016 0 0.000792029 0.000792029 -0.00172015 87.5573 20967.1 36750.4 
448 0.0006 0.0006 0 0.00271584 0.00271584 -0.000846373 27.7344 22297 21896.5 
488 0.0008 0.0008 0 0.00147582 0.00147582 0.00195004 38.6342 16045.6 14621.2 
528 0.0012 0.0012 0 0.00212953 0.00212953 -0.00117777 59.5893 16291.3 29623.4 
568 0.0012 0.0012 0 0.00193466 0.00193466 -0.000574961 53.0837 12390 13352.3 
608 0.0004 0.0004 0 -0.000177072 -0.000177072 -0.000433963 25.1146 5247.65 6653.21 
648 0 0 0 0 0 0 0 0 0 
688 0 0 0 0 0 0 0 0 0 
728 0.0002 0.0002 0 -0.000722446 -0.000722446 0.000945282 7.22446 1921.64 2963.29 
768 0.0002 0.0002 0 -0.00179991 -0.00179991 -0.000900496 17.9991 1711.69 937.94 
808 0.0004 0.0004 0 -0.00256698 -0.00256698 0.00102238 25.6698 -401.879 -2414.33 
848 0 0 0 0 0 0 0 0 0 
888 0.0002 0.0002 0 -0.0007712 -0.0007712 0.000337833 7.712 1825.83 1745.67 
928 0 0 0 0 0 0 0 0 0 
968 0 0 0 0 0 0 0 0 0 
1008 0.001 0.001 0 0.00165778 0.00165778 0.000409896 42.948 1717.72 117.565 
1048 0.0006 0.0006 0 0.000934201 0.000934201 0.00107283 45.4787 19294.8 21619.9 
1088 0.0008 0.0008 0 0.0014206 0.0014206 -0.0012707 35.1779 3936.8 5457.82 
1128 0.0004 0.0004 0 -0.000724424 -0.000724424 -0.000733071 21.6415 -870.867 -2632.4 
1168 0.0014 0.0014 0 -0.000485778 -0.000485778 -0.00128261 99.2998 2095.76 14170.6 
1208 0.0012 0.0012 0 0.00170845 0.00170845 0.000385546 50.1944 8776.98 11991.2 
1248 0.0012 0.0012 0 0.00209808 0.00209808 -0.000935111 41.9712 8468.15 11725 
9 0.0006 0.0006 0 0.00330639 0.00330639 0.00179755 324.8 9106.55 20685.5 
49 0.0096 0.0096 0 0.0544998 0.0544998 -0.00415277 544.998 64344.8 86171 
89 0.0084 0.0084 0 0.043088 0.043088 0.0032182 430.88 45851.7 89878.4 
129 0.0092 0.0092 0 0.0492215 0.0492215 0.000517919 492.215 47964.7 57272.1 
169 0.0094 0.0094 0 0.0466839 0.0466839 0.00101171 466.839 82322.3 104248 
209 0.0088 0.0088 0 0.0476811 0.0476811 0.00285486 476.811 33436.6 53899.7 
249 0.0106 0.0106 0 0.051311 0.051311 -0.000418185 513.11 71308 104162 
289 0.0074 0.0074 0 0.0388076 0.0388076 -0.000920139 388.076 50031.6 53087.4 
329 0 0 0 0 0 0 0 0 0 
369 0.0016 0.0016 0 0.00120744 0.00120744 0.00030008 77.0839 13132.1 16407.4 
409 0.0008 0.0008 0 0.000746213 0.000746213 -0.00143952 36.327 10867.5 14268.9 
449 0.0006 0.0006 0 0.000220026 0.000220026 -9.59516e-05 37.0592 -2706.54 -3298.56 
489 0.0014 0.0014 0 0.00573985 0.00573985 -0.000203558 86.9144 35140.1 44235.9 
529 0.0012 0.0012 0 -0.00102183 -0.00102183 -0.00126125 51.4523 3095.3 -158.693 
569 0.0008 0.0008 0 0.000345281 0.000345281 -0.000479332 48.31 6541.77 4271.03 
609 0.0006 0.0006 0 0.00120337 0.00120337 -3.81174e-05 31.0945 2938.53 4149.83 
649 0 0 0 0 0 0 0 0 0 
689 0 0 0 0 0 0 0 0 0 
729 0.0002 0.0002 0 -0.00149021 -0.00149021 0.000355955 14.9021 -421.403 -476.285 
769 0.0006 0.0006 0 -0.00333199 -0.00333199 0.000363437 33.3199 2162.86 2409.39 
809 0.0008 0.0008 0 -0.00424688 -0.00424688 0.000204028 42.4688 6342.26 5998.73 
849 0.0004 0.0004 0 -0.00208691 -0.00208691 0.000673153 20.8691 3127.28 3421.25 
889 0.0002 0.0002 0 -0.000500404 -0.000500404 0 5.00404 2.70834e-13 2.70834e-13 
929 0.0002 0.0002 0 -0.00122967 -0.00122967 0 12.2967 0 0 
969 0 0 0 0 0 0 0 0 0 
1009 0.0006 0.0006 0 0.00180659 0.00180659 0.000289877 33.7208 10860.6 12163.5 
1049 0.0008 0.0008 0 0.00189767 0.00189767 -0.00110311 48.2052 3776.17 5709.74 
1089 0.001 0.001 0 0.000397189 0.000397189 -0.000295281 51.262 -7200.3 -8242.1 
1129 0.0014 0.0014 0 0.00383652 0.00383652 -0.000344366 93.3297 32891.4 39860.2 
1169 0.0016 0.0016 0 0.00227884 0.00227884 -0.000784784 69.5719 10870.1 15984.9 
1209 0.0006 0.0006 0 0.00275197 0.00275197 -0.000319847 23.9876 13068.4 19024.2 
1249 0.0006 0.0006 0 1.31121e-05 1.31121e-05 0.00121018 50.2743 929.832 13628.7 
10 0.0004 0.0004 0 0.00170273 0.00170273 -0.000269954 186.069 28633.3 34211.6 
50 0.0078 0.0078 0 0.0366391 0.0366391 -0.00636606 366.391 86858.9 103333 
90 0.0076 0.0076 0 0.0360947 0.0360947 -0.00273195 360.947 46598.8 86898.2 
130 0.0098 0.0098 0 0.052867 0.052867 0.00278988 528.67 47908.3 65314.7 
170 0.0056 0.0056 0 0.0280769 0.0280769 -0.001428 280.769 41068.7 49961.4 
210 0.0108 0.0108 0 0.0592269 0.0592269 0.00161125 592.269 74773.2 104817 
250 0.0102 0.0102 0 0.0455079 0.0455079 0.00501119 455.079 59694.5 65002 
290 0.006 0.006 0 0.0285606 0.0285606 0.00164138 285.606 38125.5 54745.1 
330 0.0002 0.0002 0 7.84148e-05 7.84148e-05 0 23.7183 0 0 
370 0.0008 0.0008 0 0.00129448 0.00129448 0.000281625 26.6346 -3372.08 -5570.69 
410 0.0004 0.0004 0 0.000279058 0.000279058 0.0019789 18.8758 8599.48 9515.82 
450 0.0012 0.0012 0 0.00275183 0.00275183 -0.0020328 54.2439 7063.91 3388.79 
490 0.001 0.001 0 0.000689688 0.000689688 0.000476619 50.1087 7778.48 8802.99 
530 0.0012 0.0012 0 0.00374587 0.00374587 -0.00112926 49.6186 12930.4 14739.3 
570 0.0012 0.0012 0 0.00274734 0.00274734 -0.00128459 56.6959 7216.66 9235.78 
610 0.0004 0.0004 0 -0.00026203 -0.00026203 -0.00146961 12.8418 -386.78 11003.2 
650 0.0002 0.0002 0 -0.000746029 -0.000746029 -0.000678593 74.7322 39928.4 34502.1 
690 0 0 0 0 0 0 0 0 0 
730 0 0 0 0 0 0 0 0 0 
770 0 0 0 0 0 0 0 0 0 
810 0.0002 0.0002 0 -0.00158073 -0.00158073 6.00547e-05 15.8073 1455.88 4520.71 
850 0.0002 0.0002 0 -0.00083235 -0.00083235 -0.000127267 8.3235 4525.64 3836.1 
890 0.0002 0.0002 0 -0.000767746 -0.000767746 -0.000151202 7.67746 278.091 -509.399 
930 0.0002 0.0002 0 -0.00139075 -0.00139075 0.000287135 13.9075 3691.2 5784.38 
970 0.0008 0.0008 0 0.000595249 0.000595249 0.000162353 179.415 3317.17 7765.27 
1010 0.0002 0.0002 0 0.000350801 0.000350801 8.24313e-05 9.97803 1843.47 1327.42 
1050 0.0002 0.0002 0 0.000201377 0.000201377 -0.000562838 11.1617 -1901.39 6496.75 
1090 0.0008 0.0008 0 -0.00158003 -0.00158003 0.00163379 48.766 12464.7 22159.3 
1130 0.0006 0.0006 0 0.000659281 0.000659281 -0.00150412 42.7189 5042.69 10491.4 
1170 0.0018 0.0018 0 0.0016504 0.0016504 -2.31907e-05 84.7934 5735.38 8604.62 
1210 0.001 0.001 0 0.00223213 0.00223213 -0.00066016 45.1954 2258.21 7853.66 
1250 0.001 0.001 0 0.00216148 0.00216148 -0.000738325 56.7641 12024 29919.5 
11 0.0004 0.0004 0 0.00137952 0.00137952 -0.000482277 138.335 -4983.74 -24657.6 
51 0.006 0.006 0 0.0306154 0.0306154 0.00180063 306.154 32057.5 57357.5 
91 0.0072 0.0072 0 0.0357178 0.0357178 -0.00376813 357.178 23926.5 35930.7 
131 0.0108 0.0108 0 0.0534602 0.0534602 -0.00383725 534.602 84232.7 107652 
171 0.0094 0.0094 0 0.0505541 0.0505541 -0.00498171 505.541 81292.9 100027 
211 0.0062 0.0062 0 0.0326487 0.0326487 0.00387669 326.487 35577.7 55071.3 
251 0.0088 0.0088 0 0.0423819 0.0423819 -0.00456974 423.819 64701.6 77699.8 
291 0.009 0.009 0 0.0433535 0.0433535 0.000810361 433.535 72602.2 88125.2 
331 0 0 0 0 0 0 0 0 0 
371 0.0014 0.0014 0 0.00167006 0.00167006 -0.000402815 64.6127 7526.49 9338.75 
411 0.0008 0.0008 0 0.000433069 0.000433069 0.00103716 37.6724 1849.84 1346.22 
451 0.002 0.002 0 0.00204354 0.00204354 0.00138549 78.9952 13774.2 21191.4 
491 0.0002 0.0002 0 0.000616491 0.000616491 5.84523e-05 6.13757 2209.42 3463.36 
531 0.0014 0.0014 0 0.000732103 0.000732103 -2.39902e-07 64.7026 602.797 3982.26 
571 0.0006 0.0006 0 0.000447932 0.000447932 -0.000869779 20.3521 7614.83 10952.1 
611 0.0008 0.0008 0 -0.00146208 -0.00146208 0.0002107 39.6516 -2909.61 -773.93 
651 0 0 0 0 0 0 0 0 0 
691 0 0 0 0 0 0 0 0 0 
731 0 0 0 0 0 0 0 0 0 
771 0.0004 0.0004 0 -0.00172106 -0.00172106 -0.000100326 17.2106 -93.371 3434.03 
811 0.0002 0.0002 0 -0.001255 -0.001255 -0.000524477 12.55 2149.57 2014.81 
851 0.0004 0.0004 0 -0.00166992 -0.00166992 -0.000980629 16.6992 32.3832 1528.98 
891 0.0002 0.0002 0 -0.00154726 -0.00154726 4.91448e-05 15.4726 292.195 -1980.81 
931 0 0 0 0 0 0 0 0 0 
971 0 0 0 0 0 0 0 0 0 
1011 0.0008 0.0008 0 0.000274797 0.000274797 -0.000454642 37.598 7521.34 6222.15 
1051 0.0006 0.0006 0 0.000332926 0.000332926 -0.00110599 25.5693 3996.79 3251.53 
1091 0.0008 0.0008 0 0.00228108 0.00228108 0.000172142 34.7785 21911.6 18746.9 
1131 0.0006 0.0006 0 0.00183344 0.00183344 -5.3586e-05 37.1487 11469.2 14761.5 
1171 0.0004 0.0004 0 0.000108249 0.000108249 -0.00134673 18.4369 1247.1 2707.2 
1211 0.0014 0.0014 0 -0.000247092 -0.000247092 0.00241973 72.9493 19388.4 29022.8 
1251 0.0014 0.0014 0 0.00156869 0.00156869 -0.00064545 54.0237 5190.3 7080.27 
12 0.0006 0.0006 0 0.0021827 0.0021827 -0.00155817 247.554 23013.5 25324.2 
52 0.0096 0.0096 0 0.0500399 0.0500399 -0.00305414 500.399 90304.6 111901 
92 0.008 0.008 0 0.046732 0.046732 -0.000154794 467.32 64227.4 92802.7 
132 0.0114 0.0114 0 0.0568926 0.0568926 0.00453646 568.926 97244.6 132524 
172 0.01 0.01 0 0.0485949 0.0485949 0.00323019 485.949 62411.9 103478 
212 0.0108 0.0108 0 0.0498061 0.0498061 -0.00467272 498.061 44132.4 64811.5 
252 0.0102 0.0102 0 0.0481558 0.0481558 0.000183784 481.558 29606.5 72862.7 
292 0.009 0.009 0 0.045788 0.045788 -0.00430659 457.88 32768.3 81754.3 
332 0 0 0 0 0 0 0 0 0 
372 0.0012 0.0012 0 0.00147688 0.00147688 0.000216484 49.179 2996.96 8932.32 
412 0.0014 0.0014 0 0.00240065 0.00240065 -0.000296976 68.4403 14055 11769.8 
452 0.0014 0.0014 0 0.00158602 0.00158602 0.000686675 56.9186 -1059 -4821.87 
492 0.0012 0.0012 0 0.00138293 0.00138293 -0.00121951 87.7822 23191.5 25518.9 
532 0.0008 0.0008 0 0.00104257 0.00104257 -0.00013544 31.808 3640.64 6564.57 
572 0.001 0.001 0 0.000148305 0.000148305 -0.00159357 62.0284 -4295.83 -2656.89 
612 0.0002 0.0002 0 -0.000270756 -0.000270756 0.000966693 15.7172 6482.46 4425.48 
652 0 0 0 0 0 0 0 0 0 
692 0.0002 0.0002 0 -0.000690605 -0.000690605 0 6.90605 0 0 
732 0 0 0 0 0 0 0 0 0 
772 0.0006 0.0006 0 -0.00199415 -0.00199415 0.00143042 19.9415 3047.22 1234.11 
812 0 0 0 0 0 0 0 0 0 
852 0 0 0 0 0 0 0 0 0 
892 0 0 0 0 0 0 0 0 0 
932 0.0004 0.0004 0 -0.00142313 -0.00142313 0.00117991 14.2313 88.7722 2674.73 
972 0 0 0 0 0 0 0 0 0 
1012 0.0012 0.0012 0 0.00107694 0.00107694 -0.00112209 79.7792 19820.4 25110.3 
1052 0.0014 0.0014 0 -0.000348298 -0.000348298 -0.000893144 65.0654 3652.56 10502.6 
1092 0.0012 0.0012 0 0.00111196 0.00111196 -0.000903393 49.305 4985.3 7934.67 
1132 0.0006 0.0006 0 0.000653746 0.000653746 0.000203116 33.2098 1784.69 3869.7 
1172 0.0008 0.0008 0 0.00104415 0.00104415 -0.00115802 51.3365 2354.49 3794.27 
1212 0.0002 0.0002 0 0 0 0 5.43189 3.61112e-13 3.61112e-13 
1252 0 0 0 0 0 0 0 0 0 
13 0.0008 0.0008 0 0.00330683 0.00330683 0.000470242 331.054 55639.3 99836.7 
53 0.0082 0.0082 0 0.0424795 0.0424795 0.00447645 424.795 57561.3 101760 
93 0.0116 0.0116 0 0.0623039 0.0623039 0.0100836 623.039 56347.5 76163 
133 0.0038 0.0038 0 0.0223434 0.0223434 0.00193707 223.434 25490 37368.3 
173 0.0122 0.0122 0 0.0579671 0.0579671 7.8918e-05 579.671 85317.4 103043 
213 0.0082 0.0082 0 0.0477599 0.0477599 -0.000889067 477.599 63847 68888.6 
253 0.0092 0.0092 0 0.0409161 0.0409161 0.000802276 409.161 47931.4 63604.6 
293 0.0086 0.0086 0 0.041292 0.041292 -0.00089801 412.92 43920.1 72831.3 
333 0 0 0 0 0 0 0 0 0 
373 0.0006 0.0006 0 0.00106432 0.00106432 -0.000325759 23.0242 3965.35 11532.4 
413 0 0 0 0 0 0 0 0 0 
453 0.0008 0.0008 0 0.0024442 0.0024442 -0.00128169 38.8469 -900.504 -3049.61 
493 0.001 0.001 0 0.00114226 0.00114226 0.000898697 51.3895 4126.29 3814.69 
533 0.001 0.001 0 -0.00120904 -0.00120904 0.000599192 39.8875 6360.38 3722.8 
573 0.0006 0.0006 0 0.000786908 0.000786908 -7.75549e-05 24.7321 3061.22 9924.8 
613 0.001 0.001 0 0.00330462 0.00330462 -0.000565783 49.7937 21534.6 20300 
653 0 0 0 0 0 0 0 0 0 
693 0.0002 0.0002 0 -0.000237926 -0.000237926 0 2.37926 1.80556e-13 1.80556e-13 
733 0.0002 0.0002 0 -0.0013547 -0.0013547 0 13.547 2.16667e-12 2.16667e-12 
773 0 0 0 0 0 0 0 0 0 
813 0 0 0 0 0 0 0 0 0 
853 0 0 0 0 0 0 0 0 0 
893 0 0 0 0 0 0 0 0 0 
933 0 0 0 0 0 0 0 0 0 
973 0.0002 0.0002 0 -0.000141229 -0.000141229 0.000556506 13.8287 -162.02 761.071 
1013 0.0012 0.0012 0 0.00255794 0.00255794 -0.00162331 46.4354 4228.34 8308.41 
1053 0.0012 0.0012 0 0.00211129 0.00211129 0.000374222 57.0737 -4832.17 1629.14 
1093 0.0008 0.0008 0 0.00136511 0.00136511 0.000904735 42.3282 -121.745 1852.24 
1133 0.001 0.001 0 0.00103975 0.00103975 0.00157248 51.8012 4107.21 9003.17 
1173 0.0006 0.0006 0 0.00181233 0.00181233 -0.000134022 28.4416 6531.97 3256.81 
1213 0.0002 0.0002 0 0.00046366 0.00046366 0.000310364 14.0572 -3011.51 -1612.96 
1253 0.0012 0.0012 0 0.0021714 0.0021714 -0.000270859 52.5599 5811.23 6883.44 
14 0.0004 0.0004 0 0.00198852 0.00198852 0.00125216 197.229 33466.1 54166.9 
54 0.0096 0.0096 0 0.0458687 0.0458687 0.00389102 458.687 98130.1 122059 
94 0.0082 0.0082 0 0.0454936 0.0454936 7.61945e-05 454.936 89288.4 115731 
134 0.0082 0.0082 0 0.0403664 0.0403664 -0.00246593 403.664 77844.4 96201.2 
174 0.007 0.007 0 0.0374124 0.0374124 -0.000527349 374.124 59524.5 78912.4 
214 0.0042 0.0042 0 0.022979 0.022979 -0.00375405 229.79 40228.1 50623.1 
254 0.0068 0.0068 0 0.0361775 0.0361775 -0.00351287 361.775 32182.1 51003.7 
294 0.0086 0.0086 0 0.0453276 0.0453276 0.000401247 453.276 83452.2 102884 
334 0.0002 0.0002 0 8.4997e-05 8.4997e-05 0.000443145 22.5536 -2464.18 -7561.95 
374 0.001 0.001 0 0.00035916 0.00035916 -0.000451391 48.6412 16430.2 16032 
414 0.0014 0.0014 0 0.0042818 0.0042818 -0.00220525 70.7773 22210.9 22067.8 
454 0.001 0.001 0 0.00174068 0.00174068 0.000922723 58.1028 3476.33 10151.6 
494 0.001 0.001 0 0.00267666 0.00267666 -0.00121463 49.9824 -553.108 1654.02 
534 0.0018 0.0018 0 0.00108468 0.00108468 -0.000480761 90.4454 22112.3 23478.3 
574 0.0006 0.0006 0 0.00292769 0.00292769 0.000613369 33.5022 8999.18 13463.7 
614 0.0008 0.0008 0 0.00200076 0.00200076 0.00129102 29.4155 13453.9 16537.5 
654 0 0 0 0 0 0 0 0 0 
694 0.0006 0.0006 0 -0.00277588 -0.00277588 -0.000411432 27.7588 3620.22 3212.99 
734 0 0 0 0 0 0 0 0 0 
774 0.0002 0.0002 0 -0.00092309 -0.00092309 0 9.2309 7.22224e-13 7.22224e-13 
814 0.0002 0.0002 0 -0.00125314 -0.00125314 0.00040357 12.5314 5998.08 4521.24 
854 0.0004 0.0004 0 -0.00224039 -0.00224039 0.000588494 22.4039 -4128.16 1009.8 