ITEM: TIMESTEP
25000
ITEM: NUMBER OF SURFS
1272
ITEM: BOX BOUNDS oo rr pp
0 0.3
0 0.3
-0.5 0.5
ITEM: SURFS id f_4[1] f_4[2] f_4[3] f_4[4] f_4[5] f_4[6] f_4[7] f_4[8] f_4[9] 
1 0.0004 0.0004 0 0.000167664 0.000167664 -7.09164e-05 18.8822 1905.63 1341.24 
41 0.0816 0.0816 0 0.0426887 0.0426887 -0.00127099 426.887 59924.6 82002.7 
81 0.0868 0.0868 0 0.0423404 0.0423404 0.00187469 423.404 61366.3 81906.8 
121 0.0858 0.0858 0 0.0420884 0.0420884 -6.65803e-05 420.884 45033.8 63693.5 
161 0.0876 0.0876 0 0.0430686 0.0430686 0.000378228 430.686 42117.9 55862.6 
201 0.075 0.075 0 0.0359859 0.0359859 -0.000906963 359.859 36057.2 50670.9 
241 0.0878 0.0878 0 0.0434964 0.0434964 -0.00107711 434.964 55914.8 72350.4 
281 0.0822 0.0822 0 0.0411607 0.0411607 0.00193358 411.607 56901.6 77587 
321 0.0048 0.0048 0 0.00241426 0.00241426 -0.000313003 253.221 29078.6 45504.3 
361 0.01 0.01 0 0.00214061 0.00214061 -0.00031196 49.7066 9558.82 11949.8 
401 0.009 0.009 0 0.00158531 0.00158531 -0.000589638 46.5792 7608.41 10452.2 
441 0.008 0.008 0 0.000865362 0.000865362 -0.000396998 44.1667 8749.96 10227.3 
481 0.0102 0.0102 0 0.000994922 0.000994922 -0.000222206 51.3244 3781.84 4854.92 
521 0.0104 0.0104 0 0.0010379 0.0010379 0.000602487 53.8615 4617.13 6889.1 
561 0.0122 0.0122 0 0.000582341 0.000582341 0.000421997 57.4526 7001.36 8988.89 
601 0.0102 0.0102 0 0.00153078 0.00153078 6.35898e-06 43.7937 8878.91 9793.02 
641 0 0 0 0 0 0 0 0 0 
681 0.0006 0.0006 0 -0.000317565 -0.000317565 7.99523e-05 3.17565 310.567 -47.0084 
721 0.0022 0.0022 0 -0.000811095 -0.000811095 -0.000257134 8.11095 694.586 1317.92 
761 0.0026 0.0026 0 -0.00132525 -0.00132525 0.00014746 13.2525 861.463 433.822 
801 0.0016 0.0016 0 -0.000812357 -0.000812357 7.04098e-05 8.12357 914.209 970.322 
841 0.0026 0.0026 0 -0.00119671 -0.00119671 -0.000166231 11.9671 884.015 574.575 
881 0.0016 0.0016 0 -0.000844962 -0.000844962 -5.77598e-05 8.44962 181.975 1174.94 
921 0.0012 0.0012 0 -0.000618848 -0.000618848 2.3402e-06 6.18848 362.708 710.168 
961 0.0002 0.0002 0 3.53431e-05 3.53431e-05 4.1632e-05 6.31805 3512.04 1665.97 
1001 0.0052 0.0052 0 0.000401225 0.000401225 0.000409283 23.9671 3183.46 3091.48 
1041 0.0072 0.0072 0 0.00022626 0.00022626 -0.000228549 38.9908 4992.36 4145.24 
1081 0.0086 0.0086 0 0.000863404 0.000863404 -0.000101839 40.6584 5062.77 5612.9 
1121 0.0094 0.0094 0 0.000969838 0.000969838 0.000390078 42.8848 4364.62 5666.1 
1161 0.0094 0.0094 0 0.000443397 0.000443397 -0.000695029 43.2406 2520.85 4675.43 
1201 0.0094 0.0094 0 0.000445906 0.000445906 0.000262225 45.7975 7429.57 9002.44 
1241 0.007 0.007 0 0.000923821 0.000923821 0.000721564 36.973 7517.98 10733 
2 0.0006 0.0006 0 6.60942e-05 6.60942e-05 0.000107314 26.7843 8950.83 6144.2 
42 0.086 0.086 0 0.0407127 0.0407127 -0.000890595 407.127 57356.5 68080.8 
82 0.0886 0.0886 0 0.0435347 0.0435347 -0.000190459 435.347 57015.4 77268.6 
122 0.0944 0.0944 0 0.0450373 0.0450373 -0.00174796 450.373 52777.4 73512.4 
162 0.0866 0.0866 0 0.042821 0.042821 0.000759046 428.21 47907.3 66056.8 
202 0.0852 0.0852 0 0.0414259 0.0414259 0.000264432 414.259 44281.6 59765.5 
242 0.0934 0.0934 0 0.047295 0.047295 -0.000124677 472.95 54594.5 77706.4 
282 0.0782 0.0782 0 0.0388192 0.0388192 0.000954047 388.192 51311.7 71845.5 
322 0.0038 0.0038 0 0.00168083 0.00168083 -0.000454809 184.083 55835.7 67768.4 
362 0.0062 0.0062 0 0.0011234 0.0011234 0.000118094 33.1209 8505.91 11187.2 
402 0.009 0.009 0 0.00108409 0.00108409 -9.63329e-05 48.9841 7487.72 10697.4 
442 0.0098 0.0098 0 0.00141868 0.00141868 -2.32189e-05 49.2861 9264.17 10528.4 
482 0.012 0.012 0 0.00147109 0.00147109 -0.000156895 60.1707 7959.62 10524.4 
522 0.0074 0.0074 0 0.000484596 0.000484596 6.98575e-05 43.0778 3845.31 5389.31 
562 0.0088 0.0088 0 0.000777371 0.000777371 -0.00050117 42.6931 4602.84 5769.99 
602 0.0074 0.0074 0 0.000418938 0.000418938 -0.000306191 33.8831 4282.92 6360.31 
642 0 0 0 0 0 0 0 0 0 
682 0.0014 0.0014 0 -0.000632006 -0.000632006 -2.99146e-05 6.32006 316.859 263.382 
722 0.0026 0.0026 0 -0.00100736 -0.00100736 7.6801e-05 10.0736 796.67 2238.36 
762 0.0022 0.0022 0 -0.00103895 -0.00103895 -0.000157834 10.3895 -69.2128 617.963 
802 0.0022 0.0022 0 -0.00129169 -0.00129169 0.000193198 12.9169 1954.93 2317.46 
842 0.001 0.001 0 -0.000414971 -0.000414971 -3.05436e-05 4.14971 926.521 647.001 
882 0.0016 0.0016 0 -0.000702337 -0.000702337 3.43444e-05 7.02337 29.7941 1088.94 
922 0.0006 0.0006 0 -0.000189112 -0.000189112 -3.13194e-05 1.89112 345.853 87.1404 
962 0 0 0 0 0 0 0 0 0 
1002 0.0102 0.0102 0 0.000659222 0.000659222 0.000587543 47.8576 6358.14 7854.45 
1042 0.0086 0.0086 0 0.00124553 0.00124553 -0.000512372 44.0178 6809.43 9362.11 
1082 0.0108 0.0108 0 0.00131933 0.00131933 -0.00075902 50.8433 6051.09 9539.84 
1122 0.01 0.01 0 0.0010532 0.0010532 0.000727315 49.5529 5577.53 6823.08 
1162 0.0104 0.0104 0 0.000926298 0.000926298 0.000170094 48.1968 4334.07 7546.05 
1202 0.009 0.009 0 0.0012067 0.0012067 0.000246264 45.4234 7209.8 13160.5 
1242 0.0102 0.0102 0 0.00159633 0.00159633 -0.000145619 47.5926 8331.49 10026.2 
3 0.0018 0.0018 0 0.000867995 0.000867995 -0.000248684 107.24 22402.1 20835.8 
43 0.0788 0.0788 0 0.0393056 0.0393056 0.000235002 393.056 54927.3 74502.2 
83 0.0796 0.0796 0 0.0414914 0.0414914 0.00164008 414.914 43134.9 62699.6 
123 0.0832 0.0832 0 0.0398085 0.0398085 -0.000944574 398.085 40976.2 56644.6 
163 0.0832 0.0832 0 0.0397291 0.0397291 0.00172541 397.291 32979.5 45494.4 
203 0.0802 0.0802 0 0.0379757 0.0379757 -0.000484088 379.757 28970.9 45491.7 
243 0.1002 0.1002 0 0.0491771 0.0491771 0.000112518 491.771 56410.7 77325.4 
283 0.0902 0.0902 0 0.0431023 0.0431023 0.00110245 431.023 57765.1 77418.9 
323 0.0024 0.0024 0 0.00112609 0.00112609 -6.09009e-05 116.943 27107.5 32443.2 
363 0.0082 0.0082 0 0.00121064 0.00121064 -0.000359533 45.2201 10486.8 12170.6 
403 0.0086 0.0086 0 0.000692233 0.000692233 0.000208876 38.3834 4768.44 6084.94 
443 0.0088 0.0088 0 0.00101285 0.00101285 -0.000192704 49.825 5860.87 7548.08 
483 0.01 0.01 0 0.0012398 0.0012398 -3.79929e-05 48.6927 6972.71 8910.52 
523 0.0096 0.0096 0 0.000838405 0.000838405 -0.000423251 42.8745 4071.84 6278.19 
563 0.0066 0.0066 0 0.00111462 0.00111462 -5.74426e-05 32.3212 2336.74 3788.1 
603 0.006 0.006 0 0.000148962 0.000148962 2.59457e-05 31.9082 4361.09 5642.96 
643 0 0 0 0 0 0 0 0 0 
683 0.0014 0.0014 0 -0.000731505 -0.000731505 0.000375116 7.31505 -16.7571 -166.415 
723 0.0014 0.0014 0 -0.000613818 -0.000613818 -0.000168357 6.13818 116.62 111.378 
763 0.003 0.003 0 -0.00147514 -0.00147514 0.000287877 14.7514 1168.87 1772.45 
803 0.002 0.002 0 -0.000860034 -0.000860034 0.000133276 8.60034 264.792 842.719 
843 0.0018 0.0018 0 -0.000758209 -0.000758209 6.58288e-05 7.58209 -226.203 -727.58 
883 0.0008 0.0008 0 -0.000269013 -0.000269013 -3.07122e-06 2.69013 368.463 569.722 
923 0.0008 0.0008 0 -0.000448576 -0.000448576 7.47265e-05 4.48576 -152.792 120.597 
963 0.0004 0.0004 0 4.30744e-06 4.30744e-06 7.22951e-05 16.7084 4271.83 5358.12 
1003 0.009 0.009 0 0.000979915 0.000979915 6.41876e-05 40.3047 9018.09 10565.9 
1043 0.008 0.008 0 0.00112372 0.00112372 8.771e-05 36.421 3344.58 3910.35 
1083 0.0096 0.0096 0 0.00082484 0.00082484 0.000421628 41.761 2686.32 3981.47 
1123 0.0108 0.0108 0 0.0012383 0.0012383 -0.000247107 52.4138 7333.65 8796.42 
1163 0.009 0.009 0 0.00119474 0.00119474 0.000127507 48.4848 9034.04 10149.3 
1203 0.0076 0.0076 0 0.000419085 0.000419085 -5.65376e-05 39.2142 5224.43 6625.21 
1243 0.007 0.007 0 0.000993135 0.000993135 -0.000775679 32.7203 8831.02 9448.24 
4 0.0016 0.0016 0 0.00060215 0.00060215 0.000300323 77.4343 14618.1 20970.7 
44 0.0756 0.0756 0 0.0384389 0.0384389 0.000616946 384.389 49397 63691.6 
84 0.0748 0.0748 0 0.037722 0.037722 0.000747208 377.22 43689.7 59336.8 
124 0.084 0.084 0 0.0411644 0.0411644 0.000183078 411.644 46511.1 59555 
164 0.1022 0.1022 0 0.0497715 0.0497715 -0.000814038 497.715 43187.5 57123.6 
204 0.0898 0.0898 0 0.0449276 0.0449276 -0.00179289 449.276 45798.6 64346.8 
244 0.0922 0.0922 0 0.0448255 0.0448255 -0.000221781 448.255 45765.4 67329.2 
284 0.0858 0.0858 0 0.0428515 0.0428515 -0.000253968 428.515 51707.5 71446.4 
324 0.0034 0.0034 0 0.00186489 0.00186489 0.00025579 173.313 34905.1 42871.6 
364 0.009 0.009 0 0.00203943 0.00203943 -0.000154648 43.6632 7497.33 11523.7 
404 0.0106 0.0106 0 0.00177327 0.00177327 -0.000438608 52.8647 8723.67 13539 
444 0.0084 0.0084 0 0.00112932 0.00112932 -0.000352424 44.7346 7992.61 9938.88 
484 0.0096 0.0096 0 0.00116715 0.00116715 0.000595242 46.1452 5782.04 8380.91 
524 0.0098 0.0098 0 0.000570013 0.000570013 0.000381812 48.1162 4533.69 5886.23 
564 0.008 0.008 0 0.000559411 0.000559411 0.000437837 37.1287 3110.69 5623.89 
604 0.0076 0.0076 0 0.000886929 0.000886929 0.000431269 32.2926 3953.5 5020.4 
644 0 0 0 0 0 0 0 0 0 
684 0.001 0.001 0 -0.00051111 -0.00051111 7.60845e-05 5.1111 380.129 1187.96 
724 0.001 0.001 0 -0.000473904 -0.000473904 9.51751e-05 4.73904 288.142 389.406 
764 0.0026 0.0026 0 -0.00103225 -0.00103225 2.10345e-05 10.3225 2449.59 2251.72 
804 0.0026 0.0026 0 -0.00127064 -0.00127064 -8.17056e-05 12.7064 812.001 1365.61 
844 0.0028 0.0028 0 -0.00137363 -0.00137363 -0.000191033 13.7363 -85.7476 173.158 
884 0.0016 0.0016 0 -0.000612264 -0.000612264 8.44818e-05 6.12264 -264.173 273.494 
924 0.0006 0.0006 0 -0.000215794 -0.000215794 0.000126741 2.15794 375.382 842.946 
964 0 0 0 0 0 0 0 0 0 
1004 0.008 0.008 0 0.000990168 0.000990168 8.04343e-05 37.8092 4534.76 5289.44 
1044 0.0074 0.0074 0 0.00065234 0.00065234 0.000186624 39.6289 4402.77 3904.32 
1084 0.0108 0.0108 0 0.00107512 0.00107512 -0.000363437 52.9879 5765.45 6320.24 
1124 0.0102 0.0102 0 0.000714435 0.000714435 -0.000325613 49.2965 6577.68 8481.69 
1164 0.0092 0.0092 0 0.000776457 0.000776457 -0.000336907 37.9132 4567.7 5449.7 
1204 0.0092 0.0092 0 0.000806594 0.000806594 0.000427087 39.7726 3183.17 4074.94 
1244 0.0096 0.0096 0 0.00116791 0.00116791 -1.35845e-05 49.5393 5107.53 9369 
5 0.001 0.001 0 0.000625246 0.000625246 0.000186854 47.9813 25053.3 27243.1 
45 0.0846 0.0846 0 0.0441665 0.0441665 -0.000524156 441.665 48406 69710.9 
85 0.0836 0.0836 0 0.0425895 0.0425895 -0.000249439 425.895 54139.2 70611 
125 0.0804 0.0804 0 0.0399396 0.0399396 0.00169716 399.396 42675.4 57099.8 
165 0.0916 0.0916 0 0.047006 0.047006 -0.00229339 470.06 54642 79530.5 
205 0.0964 0.0964 0 0.0478881 0.0478881 -0.000514793 478.881 49727.2 69822.6 
245 0.0972 0.0972 0 0.0495973 0.0495973 0.000148483 495.973 67745 88325.5 
285 0.0788 0.0788 0 0.0407681 0.0407681 0.000110629 407.681 46695.1 64245.3 
325 0.0022 0.0022 0 0.00127197 0.00127197 -0.000349991 132.802 33027 46377.4 
365 0.0064 0.0064 0 0.00106686 0.00106686 -0.00064742 31.9743 9034.87 10148.9 
405 0.0098 0.0098 0 0.0011357 0.0011357 -0.000135974 47.6554 3948.53 6516.44 
445 0.0078 0.0078 0 0.000685173 0.000685173 6.44474e-05 38.5922 6498.99 8477.12 
485 0.01 0.01 0 0.00107937 0.00107937 -0.000148939 42.7367 3516.95 7327.34 
525 0.0078 0.0078 0 0.000330286 0.000330286 -0.000341469 36.6124 502.43 1902.15 
565 0.008 0.008 0 0.000760584 0.000760584 -6.60913e-05 38.8802 3629.27 3564.96 
605 0.0076 0.0076 0 0.000812601 0.000812601 4.80251e-05 37.7226 4058.11 6418.78 
645 0.0002 0.0002 0 -5.16946e-05 -5.16946e-05 3.89571e-05 11.2382 190.069 -1709.4 
685 0.0022 0.0022 0 -0.000853645 -0.000853645 0.000137768 8.53645 159.822 375.196 
725 0.0014 0.0014 0 -0.000531293 -0.000531293 -8.3652e-05 5.31293 498.921 1808.02 
765 0.0014 0.0014 0 -0.000626965 -0.000626965 -0.000333407 6.26965 583.174 752.087 
805 0.002 0.002 0 -0.000998265 -0.000998265 5.34994e-05 9.98265 -8.2535 183.742 
845 0.0016 0.0016 0 -0.000692435 -0.000692435 -0.000240725 6.92435 323.969 -47.8358 
885 0.0014 0.0014 0 -0.000531894 -0.000531894 -1.64035e-05 5.31894 451.784 525.682 
925 0.0008 0.0008 0 -0.000274713 -0.000274713 0.000147665 2.74713 -675.405 -346.854 
965 0 0 0 0 0 0 0 0 0 
1005 0.0102 0.0102 0 0.00119854 0.00119854 -3.73454e-05 49.1158 5983.71 7839.92 
1045 0.0084 0.0084 0 0.000855567 0.000855567 0.000914939 43.5058 9298.72 11430.3 
1085 0.0122 0.0122 0 0.00184832 0.00184832 0.000127094 59.8601 7983.5 9508.95 
1125 0.0098 0.0098 0 0.000508987 0.000508987 0.000307739 49.5514 5702.87 7385.2 
1165 0.0072 0.0072 0 0.000735861 0.000735861 -3.86538e-05 36.037 3072.87 4460.27 
1205 0.009 0.009 0 0.00155605 0.00155605 0.000188803 45.8851 7414.43 9694.36 
1245 0.0084 0.0084 0 0.0014875 0.0014875 0.000127262 46.3512 7696.82 10911.3 
6 0.0026 0.0026 0 0.00118221 0.00118221 -0.000108224 140.32 13670.3 12067 
46 0.0874 0.0874 0 0.044887 0.044887 0.000594153 448.87 57739.6 72635.7 
86 0.0774 0.0774 0 0.0384425 0.0384425 -0.00206814 384.425 47041.3 63804.2 
126 0.076 0.076 0 0.0368878 0.0368878 -0.00215779 368.878 37828.3 53903 
166 0.0894 0.0894 0 0.0437497 0.0437497 -0.000284988 437.497 51707.5 66281.5 
206 0.1112 0.1112 0 0.05091 0.05091 -0.00127224 509.1 50075.8 68066.5 
246 0.1014 0.1014 0 0.0497902 0.0497902 -0.00108336 497.902 58686.3 74094.8 
286 0.07 0.07 0 0.0350087 0.0350087 -0.000843458 350.087 43436.2 56684.1 
326 0.002 0.002 0 0.000756612 0.000756612 -0.00037912 93.2016 8793.85 10754 
366 0.0072 0.0072 0 0.00123101 0.00123101 -0.00015574 36.7287 4821.5 6331.87 
406 0.0096 0.0096 0 0.00138463 0.00138463 -0.000119739 43.2599 6998.21 7180.54 
446 0.0086 0.0086 0 0.00068431 0.00068431 -3.80161e-05 38.2083 4473.89 4757.02 
486 0.0106 0.0106 0 0.000825897 0.000825897 -9.29296e-05 50.9239 7887.34 10666.7 
526 0.0094 0.0094 0 0.00114138 0.00114138 -5.20988e-05 43.0503 6288.74 8763.54 
566 0.0088 0.0088 0 0.000263252 0.000263252 7.30785e-05 44.3896 5738.56 7518.21 
606 0.0066 0.0066 0 0.000570592 0.000570592 0.000162308 30.2998 2978.91 5192.02 
646 0 0 0 0 0 0 0 0 0 
686 0.0016 0.0016 0 -0.000760437 -0.000760437 1.921e-05 7.60437 245.824 453.431 
726 0.001 0.001 0 -0.000527045 -0.000527045 0.00010057 5.27045 816.119 467.711 
766 0.0016 0.0016 0 -0.000674762 -0.000674762 5.43868e-05 6.74762 720.724 864.81 
806 0.0026 0.0026 0 -0.00146121 -0.00146121 0.000105124 14.6121 2018.75 4100.9 
846 0.0022 0.0022 0 -0.000961418 -0.000961418 0.000213691 9.61418 1886.21 2073.42 
886 0.0024 0.0024 0 -0.00111444 -0.00111444 -6.02234e-05 11.1444 -251.921 921.107 
926 0.0006 0.0006 0 -0.000327895 -0.000327895 0.00016233 3.27895 164.866 86.7554 
966 0.0002 0.0002 0 6.27438e-06 6.27438e-06 -6.38283e-05 6.98737 -939.432 -1225.24 
1006 0.0122 0.0122 0 0.00144065 0.00144065 -0.000123759 57.1981 8977.93 11032 
1046 0.0114 0.0114 0 0.000892549 0.000892549 0.000275445 51.7456 3459.57 4313.82 
1086 0.0106 0.0106 0 0.00212228 0.00212228 6.60066e-05 49.5918 5839.44 5641.75 
1126 0.0078 0.0078 0 0.0010668 0.0010668 0.000347921 42.8083 8364.57 10881.6 
1166 0.0086 0.0086 0 0.000756975 0.000756975 -3.45974e-05 43.7162 4982.04 9000.74 
1206 0.0092 0.0092 0 0.000873002 0.000873002 0.000403696 44.9559 7311.04 9300.86 
1246 0.0084 0.0084 0 0.00152567 0.00152567 -0.000277237 41.6826 7797.27 9444.49 
7 0.0028 0.0028 0 0.00138342 0.00138342 3.34714e-05 144.727 24788.8 45178.1 
47 0.0916 0.0916 0 0.0475519 0.0475519 0.000270608 475.519 61762.5 84304.7 
87 0.088 0.088 0 0.0432481 0.0432481 0.000141615 432.481 51232.5 73220.8 
127 0.0834 0.0834 0 0.0423866 0.0423866 -0.000333328 423.866 48662.3 68422.3 
167 0.0922 0.0922 0 0.0443036 0.0443036 0.000984845 443.036 52068.1 73957.6 
207 0.0942 0.0942 0 0.0455137 0.0455137 0.00159733 455.137 54081.8 67245.1 
247 0.1006 0.1006 0 0.0506851 0.0506851 -0.0021857 506.851 55303.6 76239.3 
287 0.0658 0.0658 0 0.0316348 0.0316348 0.000638168 316.348 44096.7 60476.5 
327 0.0014 0.0014 0 0.000614113 0.000614113 0.000171277 69.9084 20019.7 24028.9 
367 0.0096 0.0096 0 0.00152439 0.00152439 -0.000776217 49.0219 9573.37 12356.4 
407 0.0078 0.0078 0 0.00118163 0.00118163 -0.000137715 39.4681 2746.38 4568.22 
447 0.0088 0.0088 0 0.000149152 0.000149152 0.000163736 40.5347 5320.08 8917.96 
487 0.0086 0.0086 0 0.000774618 0.000774618 0.000597975 43.9952 4923.31 5468.61 
527 0.0082 0.0082 0 0.000309172 0.000309172 -1.88969e-05 41.6126 2080.89 4483.8 
567 0.0102 0.0102 0 0.00131702 0.00131702 -0.000177781 51.4294 8294.61 9268.29 
607 0.0098 0.0098 0 0.000790578 0.000790578 -2.83554e-05 50.9492 2778.6 5421.6 
647 0.0002 0.0002 0 -0.000101638 -0.000101638 2.076e-05 10.9118 -2856.07 -3789.5 
687 0.0018 0.0018 0 -0.000778204 -0.000778204 6.99906e-05 7.78204 1766.72 1926.05 
727 0.0018 0.0018 0 -0.000787009 -0.000787009 -0.000155128 7.87009 706.909 29.025 
767 0.0016 0.0016 0 -0.000758816 -0.000758816 -0.000109184 7.58816 584.083 692.781 
807 0.003 0.003 0 -0.00125911 -0.00125911 0.000329003 12.5911 1977.78 1704.72 
847 0.0016 0.0016 0 -0.000690486 -0.000690486 -0.000130044 6.90486 180.28 702.081 
887 0.0022 0.0022 0 -0.00101283 -0.00101283 3.21232e-05 10.1283 667.105 1193.63 
927 0.001 0.001 0 -0.000399994 -0.000399994 4.31637e-05 3.99994 82.42 511.401 
967 0.0004 0.0004 0 -2.5442e-05 -2.5442e-05 -8.11671e-06 15.525 -325.443 1801.62 
1007 0.0096 0.0096 0 0.00105424 0.00105424 0.000131875 41.9748 8479.38 11175 
1047 0.01 0.01 0 0.00118763 0.00118763 8.97317e-05 51.9891 3779.06 4731.35 
1087 0.0108 0.0108 0 0.000989408 0.000989408 5.33236e-05 53.3681 6108.58 9258.59 
1127 0.0098 0.0098 0 0.00108985 0.00108985 -0.00036761 49.6362 7101.44 7407.32 
1167 0.0086 0.0086 0 0.000743314 0.000743314 0.000212328 41.5933 3907.49 4812.36 
1207 0.0094 0.0094 0 0.00101694 0.00101694 0.000647922 40.2113 7855.37 8923.66 
1247 0.0072 0.0072 0 0.00137087 0.00137087 0.000418392 35.6996 8828.72 12543.2 
8 0.004 0.004 0 0.00174229 0.00174229 0.000166941 167.935 49086.2 52622.5 
48 0.085 0.085 0 0.0420139 0.0420139 0.00182821 420.139 63475.2 82833 
88 0.0978 0.0978 0 0.0463363 0.0463363 -0.00163827 463.363 52484.9 69409.9 
128 0.0904 0.0904 0 0.0445713 0.0445713 -0.0018688 445.713 49197.9 62720.4 
168 0.0988 0.0988 0 0.0476261 0.0476261 0.000214316 476.261 41946.7 57652 
208 0.0886 0.0886 0 0.042693 0.042693 0.000911075 426.93 52264.7 70807.7 
248 0.092 0.092 0 0.0469575 0.0469575 0.000626123 469.575 45926.5 70944.3 
288 0.0754 0.0754 0 0.0393578 0.0393578 -0.000711253 393.578 42643.4 64349 
328 0.0014 0.0014 0 0.000653011 0.000653011 -0.000249241 82.8851 12381.7 20893.4 
368 0.01 0.01 0 0.000978021 0.000978021 4.86334e-05 50.1902 7318.8 11376.1 
408 0.0094 0.0094 0 0.00142073 0.00142073 -0.000147378 49.2697 9793.17 11202.6 
448 0.0076 0.0076 0 0.000835034 0.000835034 0.000255302 41.2664 4964.12 9480.4 
488 0.0098 0.0098 0 0.00128996 0.00128996 -4.74442e-05 50.8654 6041.94 7538.87 
528 0.01 0.01 0 0.00104359 0.00104359 -0.000357695 46.1831 6326.37 8142.34 
568 0.0102 0.0102 0 0.000886856 0.000886856 0.000199932 46.4547 6204.36 10479 
608 0.006 0.006 0 0.000606383 0.000606383 -2.32899e-05 28.9698 3466.71 6337.72 
648 0.0002 0.0002 0 -6.13967e-05 -6.13967e-05 3.01968e-05 8.62591 -1104.63 -779.575 
688 0.002 0.002 0 -0.00100373 -0.00100373 -1.74978e-05 10.0373 357.816 712.605 
728 0.002 0.002 0 -0.000899048 -0.000899048 -1.72318e-05 8.99048 604.307 1281.17 
768 0.0022 0.0022 0 -0.00105297 -0.00105297 1.75383e-05 10.5297 979.009 1594.47 
808 0.003 0.003 0 -0.00122041 -0.00122041 -4.10971e-05 12.2041 727.081 833.624 
848 0.0012 0.0012 0 -0.000646504 -0.000646504 5.29105e-05 6.46504 1718.38 2140.96 
888 0.0016 0.0016 0 -0.000733825 -0.000733825 -3.37077e-05 7.33825 584.659 422.604 
928 0.0012 0.0012 0 -0.000502287 -0.000502287 0.000251178 5.02287 828.102 1025.54 
968 0.0006 0.0006 0 1.98227e-05 1.98227e-05 -9.92813e-05 33.1157 5679.88 8506.94 
1008 0.0092 0.0092 0 0.000982668 0.000982668 -5.24286e-05 46.3175 5094.19 6279.25 
1048 0.0112 0.0112 0 0.00150871 0.00150871 0.000336158 54.9481 8662.9 9800.93 
1088 0.0098 0.0098 0 -0.000239633 -0.000239633 -0.000469402 45.8937 5762.65 6088.82 
1128 0.0114 0.0114 0 0.000988873 0.000988873 0.000220978 51.5344 6401.76 9549.5 
1168 0.0104 0.0104 0 0.00089927 0.00089927 0.000694474 49.742 3975.68 7301.09 
1208 0.01 0.01 0 0.00171445 0.00171445 -0.000193315 52.2633 6371.19 12371.9 
1248 0.0056 0.0056 0 0.0009556 0.0009556 -5.75307e-05 29.335 7718.87 10930.7 
9 0.002 0.002 0 0.00097045 0.00097045 0.000186874 99.2406 10621.1 23845 
49 0.0764 0.0764 0 0.0382935 0.0382935 -0.000288466 382.935 43886.3 62101.7 
89 0.0832 0.0832 0 0.0415428 0.0415428 0.00150327 415.428 47504.8 66105.3 
129 0.095 0.095 0 0.046374 0.046374 -0.000442685 463.74 47874.6 65094.8 
169 0.0836 0.0836 0 0.0394117 0.0394117 -0.000128069 394.117 36396.3 47284.8 
209 0.0858 0.0858 0 0.0408228 0.0408228 0.0008008 408.228 43734.5 65073.6 
249 0.0818 0.0818 0 0.0402735 0.0402735 0.000320651 402.735 48248.2 66677 
289 0.0792 0.0792 0 0.0414957 0.0414957 -0.000621488 414.957 55449.2 72500.2 
329 0.0024 0.0024 0 0.000902084 0.000902084 -9.09551e-05 146.151 12421.9 24363.4 
369 0.0074 0.0074 0 0.00181218 0.00181218 7.22319e-05 40.5918 8810.16 12017.3 
409 0.0086 0.0086 0 0.000919849 0.000919849 0.000790742 42.241 5934.45 6598.41 
449 0.0096 0.0096 0 0.000789851 0.000789851 0.000229233 50.9951 9658.49 9152.98 
489 0.0108 0.0108 0 0.000650812 0.000650812 -0.000121183 49.3841 7248.42 9808.43 
529 0.0078 0.0078 0 0.000855025 0.000855025 0.000396072 32.4791 3789.81 3039.86 
569 0.0086 0.0086 0 0.000621151 0.000621151 -2.61635e-05 35.9961 3127.74 5823.74 
609 0.0052 0.0052 0 0.000496354 0.000496354 0.000460619 25.3865 3062.12 2405.26 
649 0.0002 0.0002 0 -0.000146889 -0.000146889 -6.30564e-06 13.8078 -2051.55 -2450.71 
689 0.001 0.001 0 -0.000573748 -0.000573748 -7.70691e-06 5.73748 821.321 888.574 
729 0.0018 0.0018 0 -0.000879166 -0.000879166 7.08804e-05 8.79166 -1128.53 -1604.24 
769 0.002 0.002 0 -0.000971747 -0.000971747 -0.000129302 9.71747 681.911 964.887 
809 0.002 0.002 0 -0.00100757 -0.00100757 -1.19017e-05 10.0757 1444.54 1260.15 
849 0.0018 0.0018 0 -0.00112087 -0.00112087 3.89691e-05 11.2087 -209.206 109.485 
889 0.002 0.002 0 -0.000884956 -0.000884956 -7.45289e-05 8.84956 -446.902 -54.8489 
929 0.0008 0.0008 0 -0.000298782 -0.000298782 -0.000149313 2.98782 326.728 883.014 
969 0.0006 0.0006 0 6.50609e-05 6.50609e-05 2.02815e-05 27.9055 106.153 5155.1 
1009 0.0098 0.0098 0 0.00174658 0.00174658 -0.00019405 45.3422 5023.13 8032.17 
1049 0.0098 0.0098 0 0.000707335 0.000707335 -0.00101175 46.4884 3579.86 4738.54 
1089 0.0086 0.0086 0 0.000549506 0.000549506 0.00014498 43.2115 4896.09 6880.5 
1129 0.0106 0.0106 0 0.00124992 0.00124992 -0.000287342 51.2801 10785.7 14262.1 
1169 0.0092 0.0092 0 0.000903175 0.000903175 0.000227803 44.1469 5211.43 4932.65 
1209 0.0082 0.0082 0 0.000918879 0.000918879 -0.000138733 39.432 5143.9 7288.35 
1249 0.0084 0.0084 0 0.00171361 0.00171361 -0.000275694 44.2709 7816.29 7823.54 
10 0.0032 0.0032 0 0.00165541 0.00165541 0.000171896 145.324 19505.3 34804.6 
50 0.0742 0.0742 0 0.0382373 0.0382373 0.00071937 382.373 42289.3 61051.3 
90 0.0968 0.0968 0 0.0485066 0.0485066 -0.00247483 485.066 52774.7 69566 
130 0.0944 0.0944 0 0.0459954 0.0459954 -0.00134708 459.954 43632.6 56751.6 
170 0.0944 0.0944 0 0.0461534 0.0461534 -0.000260974 461.534 47636.5 66363.4 
210 0.0872 0.0872 0 0.0432883 0.0432883 -0.000977912 432.883 44612.2 56007.7 
250 0.088 0.088 0 0.0444491 0.0444491 -6.73283e-05 444.491 64796.5 86385.5 
290 0.076 0.076 0 0.0372365 0.0372365 0.00181342 372.365 53736.9 73454.4 
330 0.0016 0.0016 0 0.000382722 0.000382722 0.000210174 66.8964 22589.4 36079.2 
370 0.0062 0.0062 0 0.00034381 0.00034381 -6.81975e-05 24.3644 2084.54 3728.44 
410 0.0122 0.0122 0 0.00176713 0.00176713 -0.00013843 55.3838 5454.76 8224.57 
450 0.0084 0.0084 0 0.000952433 0.000952433 0.000129164 44.9066 3198.28 3412.77 
490 0.0098 0.0098 0 0.00127126 0.00127126 -4.66951e-05 47.2366 6215.56 7215.68 
530 0.0098 0.0098 0 0.00133611 0.00133611 0.000990774 44.3985 7760.77 9037.35 
570 0.0072 0.0072 0 0.000538703 0.000538703 -6.24811e-05 33.9936 1117.17 2141.62 
610 0.0068 0.0068 0 0.000614175 0.000614175 -4.3638e-06 34.2422 2674.05 4374.25 
650 0 0 0 0 0 0 0 0 0 
690 0.0012 0.0012 0 -0.000491229 -0.000491229 -0.000175782 4.91229 44.5911 340.846 
730 0.001 0.001 0 -0.000421779 -0.000421779 -7.89934e-05 4.21779 -79.7587 -372.751 
770 0.0028 0.0028 0 -0.00155347 -0.00155347 -0.000117379 15.5347 3268.44 3208.35 
810 0.0016 0.0016 0 -0.000865971 -0.000865971 0.000113139 8.65971 688.044 81.3812 
850 0.0042 0.0042 0 -0.00194095 -0.00194095 -8.76526e-05 19.4095 -267.881 -639.827 
890 0.0016 0.0016 0 -0.000586729 -0.000586729 -3.93901e-05 5.86729 806.541 1223.53 
930 0.0008 0.0008 0 -0.000246534 -0.000246534 -7.24177e-05 2.46534 -78.2623 77.5072 
970 0.0014 0.0014 0 0.00029626 0.00029626 -0.000148224 23.9724 10479.1 8406.64 
1010 0.0104 0.0104 0 0.000936027 0.000936027 -0.000659355 49.963 7112.99 8549.4 
1050 0.0088 0.0088 0 0.00129456 0.00129456 2.48762e-05 41.4567 5403.96 6591.52 
1090 0.0108 0.0108 0 0.000897036 0.000897036 0.000339695 51.4419 4453.74 7685.22 
1130 0.0108 0.0108 0 0.000868873 0.000868873 0.000697283 52.5489 5819.42 8350.31 
1170 0.0112 0.0112 0 0.00172328 0.00172328 0.000381155 53.4276 10839.5 11691 
1210 0.0108 0.0108 0 0.00168281 0.00168281 -0.000439772 51.0339 5756.47 9169.92 
1250 0.009 0.009 0 0.00192315 0.00192315 0.000324322 48.7066 10816.9 14129.1 
11 0.0042 0.0042 0 0.00180001 0.00180001 -0.000353606 178.174 26354.2 45643.9 
51 0.081 0.081 0 0.0402109 0.0402109 0.000955925 402.109 44439.5 60191.7 
91 0.083 0.083 0 0.0397542 0.0397542 -0.000555373 397.542 45679.6 65754.4 
131 0.0908 0.0908 0 0.0433372 0.0433372 -0.00125239 433.372 47899 66237.1 
171 0.0934 0.0934 0 0.0471226 0.0471226 0.000891163 471.226 47191.3 68300.2 
211 0.0942 0.0942 0 0.0470444 0.0470444 3.57862e-05 470.444 52519.2 76465.7 
251 0.0898 0.0898 0 0.045131 0.045131 0.000975986 451.31 53351.9 77054.4 
291 0.0788 0.0788 0 0.0403943 0.0403943 0.00355656 403.943 50385.4 67579.1 
331 0.0008 0.0008 0 0.000173687 0.000173687 -0.000152363 42.9757 11226.5 6299.88 
371 0.0104 0.0104 0 0.00277358 0.00277358 -0.000369626 50.6922 15200.9 18792 
411 0.013 0.013 0 0.00232418 0.00232418 0.00021056 60.7293 12595.2 13511.5 
451 0.0118 0.0118 0 0.00106283 0.00106283 -0.000346868 52.7001 10159.8 11670.5 
491 0.0096 0.0096 0 0.000395403 0.000395403 -9.46126e-05 43.1027 5516.51 7515.03 
531 0.0086 0.0086 0 0.000529443 0.000529443 -0.000155449 45.3818 5008.22 6640.37 
571 0.0072 0.0072 0 0.000741926 0.000741926 0.000252368 38.258 5411.58 6252.98 
611 0.0064 0.0064 0 0.00108139 0.00108139 -0.000715565 30.9831 2048.81 4904.28 
651 0.0002 0.0002 0 -8.17917e-05 -8.17917e-05 4.16845e-05 8.58097 -1458.4 -1931.23 
691 0.0008 0.0008 0 -0.000430467 -0.000430467 3.55708e-05 4.30467 -361.156 -303.727 
731 0.0016 0.0016 0 -0.000906234 -0.000906234 0.000210336 9.06234 1126.52 1304.54 
771 0.0022 0.0022 0 -0.00115369 -0.00115369 8.31948e-05 11.5369 -966.794 -533.977 
811 0.0022 0.0022 0 -0.000948079 -0.000948079 4.42202e-06 9.48079 299.48 592.635 
851 0.0026 0.0026 0 -0.00119695 -0.00119695 0.000300299 11.9695 108.704 -80.7037 
891 0.0008 0.0008 0 -0.000335098 -0.000335098 -6.85605e-05 3.35098 4.88644 10.6325 
931 0.002 0.002 0 -0.0010166 -0.0010166 8.70696e-05 10.166 -326.323 273.39 
971 0.0014 0.0014 0 0.000401389 0.000401389 3.18142e-05 35.329 13080.7 11628.8 
1011 0.0054 0.0054 0 0.000363662 0.000363662 -0.000134994 29.955 1552.18 2751.4 
1051 0.0082 0.0082 0 0.00102352 0.00102352 -0.000348099 39.959 3444.05 7044 
1091 0.0078 0.0078 0 0.0011083 0.0011083 -0.000116044 37.7773 4119.53 6851.49 
1131 0.0096 0.0096 0 0.00137863 0.00137863 -2.5763e-06 50.454 5671.42 7511.92 
1171 0.0094 0.0094 0 0.00075119 0.00075119 -9.92565e-05 46.8949 5858.48 7275.23 
1211 0.0074 0.0074 0 0.00097832 0.00097832 -0.000337857 34.8406 5488.53 8772.07 
1251 0.0078 0.0078 0 0.000798432 0.000798432 0.000436738 35.9221 4685.13 8838.88 
12 0.0042 0.0042 0 0.00224233 0.00224233 4.82034e-05 221.884 36783.4 42392.1 
52 0.0834 0.0834 0 0.0413676 0.0413676 0.000650529 413.676 51819.1 73878.4 
92 0.0882 0.0882 0 0.0418193 0.0418193 -0.000536596 418.193 53484.4 68918.5 
132 0.0772 0.0772 0 0.0389881 0.0389881 0.000924013 389.881 41622 58780.9 
172 0.0778 0.0778 0 0.0373074 0.0373074 0.000586346 373.074 38346.1 51780 
212 0.09 0.09 0 0.0430737 0.0430737 0.000555674 430.737 45468.1 61979.6 
252 0.0868 0.0868 0 0.041814 0.041814 -0.000830195 418.14 56085.5 75095.7 
292 0.0916 0.0916 0 0.0456521 0.0456521 0.000653791 456.521 49948.5 68954 
332 0.001 0.001 0 0.000432388 0.000432388 9.76532e-05 42.7245 20105.8 26019 
372 0.0082 0.0082 0 0.00116412 0.00116412 0.000553316 39.2401 8615.06 8593.16 
412 0.0098 0.0098 0 0.000908051 0.000908051 -0.000264838 50.4607 11099.8 14212.9 
452 0.0096 0.0096 0 0.000820783 0.000820783 -5.75194e-05 46.6385 3732.56 5806.93 
492 0.0082 0.0082 0 0.000695743 0.000695743 0.000428536 37.5981 5851.24 8034.49 
532 0.0102 0.0102 0 0.000990038 0.000990038 -0.000267719 48.8877 6700.54 8284.94 
572 0.0074 0.0074 0 0.000613105 0.000613105 0.000149884 34.5474 6099.02 7350.53 
612 0.0078 0.0078 0 0.00166538 0.00166538 -0.000569412 36.6738 6673.48 6995.54 
652 0 0 0 0 0 0 0 0 0 
692 0.002 0.002 0 -0.000867205 -0.000867205 -9.20372e-05 8.67205 495.521 698.276 
732 0.0006 0.0006 0 -0.000384306 -0.000384306 -0.000190641 3.84306 1060.03 1084.65 
772 0.0012 0.0012 0 -0.000533043 -0.000533043 -2.63887e-06 5.33043 -627.295 -457.079 
812 0.0022 0.0022 0 -0.000881945 -0.000881945 -0.00035143 8.81945 -551.27 -1067.95 
852 0.0018 0.0018 0 -0.000583976 -0.000583976 0.000198513 5.83976 790.027 1401.25 
892 0.0014 0.0014 0 -0.000657149 -0.000657149 0.000121945 6.57149 14.9794 569.545 
932 0.0014 0.0014 0 -0.000512178 -0.000512178 0.000132178 5.12178 326.657 988.737 
972 0.0028 0.0028 0 0.000223123 0.000223123 -0.000116517 29.6961 4169.2 3200.31 
1012 0.0098 0.0098 0 0.000560876 0.000560876 -0.000521311 47.6937 4258.51 5106.63 
1052 0.0076 0.0076 0 0.000951549 0.000951549 5.13199e-05 35.8685 1855.29 3353.64 
1092 0.0102 0.0102 0 0.000882662 0.000882662 0.000563035 57.4454 8095.64 10034.4 
1132 0.0094 0.0094 0 0.000828257 0.000828257 -0.000322624 41.7159 3012.48 4734.19 