ITEM: TIMESTEP
25000
ITEM: NUMBER OF SURFS
1272
ITEM: BOX BOUNDS oo rr pp
0 0.3
0 0.3
-0.5 0.5
ITEM: SURFS id f_4[1] f_4[2] f_4[3] f_4[4] f_4[5] f_4[6] f_4[7] f_4[8] f_4[9] 
1 0.0002 0.0002 0 5.78489e-06 5.78489e-06 -5.93122e-06 1.15138 548.722 1002.67 
21 0.0684 0.0684 0 0.00404644 0.00404644 3.80432e-05 40.4644 9467.18 13311.2 
41 0.0738 0.0738 0 0.00414396 0.00414396 1.63986e-05 41.4396 9045.07 12250.7 
61 0.0872 0.0872 0 0.00484727 0.00484727 -0.000149503 48.4727 8185.57 11796.9 
81 0.0876 0.0876 0 0.00463297 0.00463297 9.46497e-05 46.3297 7415.07 10782.1 
101 0.0872 0.0872 0 0.00458443 0.00458443 0.000129423 45.8443 8460.53 11477.6 
121 0.0812 0.0812 0 0.00423333 0.00423333 0.000158701 42.3333 6904.11 10241.1 
141 0.0812 0.0812 0 0.00419774 0.00419774 -3.18017e-06 41.9774 6808.89 9598.15 
161 0.079 0.079 0 0.00403452 0.00403452 0.000168736 40.3452 5898.9 8603.82 
181 0.0878 0.0878 0 0.00453544 0.00453544 -2.67002e-05 45.3544 6767.11 9760.88 
201 0.0856 0.0856 0 0.00455887 0.00455887 -0.000103141 45.5887 8069.63 11250 
221 0.0818 0.0818 0 0.00418949 0.00418949 6.08281e-05 41.8949 6481.36 8981.65 
241 0.0792 0.0792 0 0.00436094 0.00436094 -1.92425e-05 43.6094 8838.59 12413.9 
261 0.0796 0.0796 0 0.00430418 0.00430418 7.668e-05 43.0418 8036.78 11945 
281 0.0776 0.0776 0 0.00434713 0.00434713 2.22222e-05 43.4713 9522.98 12327.6 
301 0.074 0.074 0 0.00426231 0.00426231 7.3924e-06 42.6231 9970.75 13155.3 
321 0.006 0.006 0 0.000351138 0.000351138 -1.31082e-05 36.2287 10103.8 14110.4 
341 0.0108 0.0108 0 0.00021683 0.00021683 6.62396e-05 5.52012 1190.96 2093.98 
361 0.0084 0.0084 0 0.000155794 0.000155794 -1.79907e-05 4.42583 1526.42 2031.55 
381 0.0076 0.0076 0 0.000105138 0.000105138 8.87491e-06 4.04126 973.474 1332.48 
401 0.012 0.012 0 0.000214809 0.000214809 -3.01221e-05 6.17012 1183.6 1808.28 
421 0.013 0.013 0 0.000265644 0.000265644 3.09766e-05 7.45467 1894.73 2787.67 
441 0.0112 0.0112 0 0.000227334 0.000227334 8.75595e-05 6.57098 2092.93 2787.38 
461 0.0078 0.0078 0 0.000200076 0.000200076 -6.08546e-06 4.06479 1254.34 1720.71 
481 0.0088 0.0088 0 0.000164478 0.000164478 -4.56022e-05 4.83161 1509.23 1665.73 
501 0.0076 0.0076 0 0.000172374 0.000172374 -9.66051e-07 3.86492 1179.99 1710.11 
521 0.0084 0.0084 0 0.000159795 0.000159795 -1.52459e-05 3.77182 1044.93 1410.08 
541 0.0094 0.0094 0 0.000199417 0.000199417 -3.53302e-06 4.67231 1190.23 1720 
561 0.008 0.008 0 0.00021171 0.00021171 1.59711e-05 4.54378 1479.71 2132.25 
581 0.0084 0.0084 0 0.000239202 0.000239202 -4.32347e-06 4.33409 1731.41 2416.16 
601 0.0078 0.0078 0 0.000138896 0.000138896 -8.65504e-06 3.77672 1055.52 1572.4 
621 0.0064 0.0064 0 0.000170787 0.000170787 -3.44134e-05 3.64221 1146.99 1644.84 
641 0 0 0 0 0 0 0 0 0 
661 0.0004 0.0004 0 -7.44112e-06 -7.44112e-06 0 0.0744112 1.44445e-14 1.44445e-14 
681 0.0002 0.0002 0 -7.56815e-06 -7.56815e-06 0 0.0756815 1.44445e-14 1.44445e-14 
701 0.0004 0.0004 0 -1.19896e-05 -1.19896e-05 -2.42591e-06 0.119896 14.8986 5.12182 
721 0.0002 0.0002 0 -3.15642e-05 -3.15642e-05 0 0.315642 1.44445e-13 1.44445e-13 
741 0.0004 0.0004 0 -1.29371e-05 -1.29371e-05 1.16493e-06 0.129371 37.5765 102.045 
761 0 0 0 0 0 0 0 0 0 
781 0.0002 0.0002 0 -7.20213e-06 -7.20213e-06 -1.65318e-06 0.0720213 15.1042 83.3621 
801 0.0002 0.0002 0 -8.89758e-06 -8.89758e-06 8.76026e-06 0.0889758 -3.31058 4.20677 
821 0.0008 0.0008 0 -3.98793e-05 -3.98793e-05 -2.13428e-05 0.398793 65.4678 85.114 
841 0.0004 0.0004 0 -1.20552e-05 -1.20552e-05 -9.74628e-06 0.120552 24.462 26.853 
861 0.0006 0.0006 0 -2.11206e-05 -2.11206e-05 -7.45852e-06 0.211206 14.7161 -6.21559 
881 0 0 0 0 0 0 0 0 0 
901 0.0002 0.0002 0 -4.02112e-06 -4.02112e-06 -7.74932e-06 0.0402112 49.5911 49.2086 
921 0.0002 0.0002 0 -1.83973e-06 -1.83973e-06 0 0.0183973 0 0 
941 0.0006 0.0006 0 -2.66474e-05 -2.66474e-05 -1.56459e-05 0.266474 -62.4282 18.3866 
961 0 0 0 0 0 0 0 0 0 
981 0.0054 0.0054 0 0.000169758 0.000169758 7.62119e-05 2.63417 1278.42 1488.04 
1001 0.008 0.008 0 0.000251687 0.000251687 -2.96504e-06 4.56007 1709.01 2205.09 
1021 0.0062 0.0062 0 0.000181286 0.000181286 -1.51401e-06 3.73746 969.661 1383.71 
1041 0.0078 0.0078 0 0.000156566 0.000156566 3.54149e-05 3.81489 1327.64 1926.49 
1061 0.0094 0.0094 0 0.000130574 0.000130574 2.76053e-05 4.80201 1126.15 1788.92 
1081 0.008 0.008 0 0.00020068 0.00020068 2.1021e-05 4.67414 1848.78 2194.68 
1101 0.0078 0.0078 0 0.000169618 0.000169618 -3.13037e-05 3.8634 1399.37 1810.96 
1121 0.0058 0.0058 0 0.000165742 0.000165742 2.80636e-06 3.10238 1015.83 1274.64 
1141 0.009 0.009 0 0.000155529 0.000155529 -5.62209e-06 4.55194 1220.15 2026.67 
1161 0.0102 0.0102 0 0.000193676 0.000193676 1.78972e-05 5.68588 1743.7 2474.84 
1181 0.0112 0.0112 0 0.000230529 0.000230529 -4.04106e-05 5.71058 1334.2 1615.6 
1201 0.0104 0.0104 0 0.00021943 0.00021943 -1.06242e-05 5.46181 1754.57 2190.09 
1221 0.0076 0.0076 0 0.00013688 0.00013688 3.17467e-05 3.96012 1136.67 1372.42 
1241 0.0094 0.0094 0 0.000213243 0.000213243 -8.07581e-06 4.80135 1661.37 2464.19 
1261 0.0082 0.0082 0 0.000208548 0.000208548 -1.59341e-05 3.71335 1130.52 1640.81 
2 0.0012 0.0012 0 7.53046e-05 7.53046e-05 1.31109e-06 9.11904 4533.01 5420.57 
22 0.0692 0.0692 0 0.00412339 0.00412339 7.4031e-05 41.2339 9567.82 12764 
42 0.0814 0.0814 0 0.00448585 0.00448585 9.18296e-05 44.8585 10986.7 15032.2 
62 0.0756 0.0756 0 0.00398766 0.00398766 -6.81705e-05 39.8766 7110.04 10161.1 
82 0.0794 0.0794 0 0.00435272 0.00435272 0.000152953 43.5272 7815.07 10732.9 
102 0.0862 0.0862 0 0.00449214 0.00449214 0.000190281 44.9214 7370.03 10865.6 
122 0.086 0.086 0 0.00447553 0.00447553 8.08419e-05 44.7553 7728.79 10725.5 
142 0.0868 0.0868 0 0.00467924 0.00467924 5.04445e-05 46.7924 7968.39 11365.8 
162 0.0782 0.0782 0 0.0040428 0.0040428 -7.69144e-05 40.428 6517.45 9071.53 
182 0.0862 0.0862 0 0.00450172 0.00450172 0.000182427 45.0172 7753.12 10983.4 
202 0.0862 0.0862 0 0.00444811 0.00444811 0.00015874 44.4811 7313.38 10894.1 
222 0.0864 0.0864 0 0.00440317 0.00440317 8.49628e-05 44.0317 8979.54 12420.8 
242 0.083 0.083 0 0.00437891 0.00437891 7.36554e-05 43.7891 8403.59 11327.9 
262 0.0744 0.0744 0 0.00401349 0.00401349 -6.5281e-05 40.1349 6979.66 10330.2 
282 0.081 0.081 0 0.004452 0.004452 0.000177049 44.52 8841.84 11903.7 
302 0.0688 0.0688 0 0.00389511 0.00389511 -2.93698e-05 38.9511 8700.46 12240.4 
322 0.003 0.003 0 0.000175733 0.000175733 2.4418e-05 17.6687 4996.68 7125.83 
342 0.01 0.01 0 0.000241939 0.000241939 5.27639e-06 4.62538 1257.61 1800.76 
362 0.0086 0.0086 0 0.000118007 0.000118007 -2.75186e-06 4.44025 1242.2 1992.07 
382 0.0106 0.0106 0 0.000194063 0.000194063 -2.0282e-05 5.17086 1317.61 2451.6 
402 0.0098 0.0098 0 0.000258767 0.000258767 -3.56004e-05 4.98958 1460.89 2077.1 
422 0.0124 0.0124 0 0.000242036 0.000242036 -0.000131195 6.93276 1941.74 2694.68 
442 0.0112 0.0112 0 0.000262047 0.000262047 5.12968e-05 5.8152 1881.88 2357.48 
462 0.0084 0.0084 0 0.000209738 0.000209738 -2.93849e-05 4.0514 1465.74 1885.95 
482 0.0078 0.0078 0 0.000154029 0.000154029 1.69033e-06 3.94543 1499.14 1931.71 
502 0.009 0.009 0 0.000217134 0.000217134 -0.000105943 5.03824 1542.04 1911.67 
522 0.0106 0.0106 0 0.000238666 0.000238666 -1.46641e-05 5.87408 1646.17 2279.76 
542 0.0102 0.0102 0 0.000297335 0.000297335 9.76729e-06 5.58679 1859.63 2476.34 
562 0.0078 0.0078 0 0.00021184 0.00021184 -8.24256e-06 3.97711 1575.75 1760.7 
582 0.0056 0.0056 0 0.000140304 0.000140304 -2.79455e-05 2.81158 884.459 996.211 
602 0.0054 0.0054 0 0.00020998 0.00020998 1.7352e-05 2.54176 1090.93 1205.38 
622 0.0082 0.0082 0 0.000233186 0.000233186 5.10883e-05 5.05848 1551.35 1933.04 
642 0.0006 0.0006 0 -9.27562e-07 -9.27562e-07 -8.95342e-06 1.36379 195.342 126.301 
662 0.0002 0.0002 0 -1.22757e-05 -1.22757e-05 2.84144e-06 0.122757 35.4478 49.1379 
682 0.0004 0.0004 0 -2.70308e-05 -2.70308e-05 5.51781e-06 0.270308 4.30255 22.4982 
702 0.0004 0.0004 0 -9.1688e-06 -9.1688e-06 7.69696e-06 0.091688 24.1032 13.5732 
722 0.0006 0.0006 0 -3.31952e-05 -3.31952e-05 2.93058e-06 0.331952 62.9822 110.865 
742 0.0002 0.0002 0 -7.54855e-06 -7.54855e-06 2.4195e-06 0.0754855 9.46371 3.03486 
762 0.0006 0.0006 0 -2.50752e-05 -2.50752e-05 1.26005e-05 0.250752 -4.52089 34.8473 
782 0.0002 0.0002 0 -7.32421e-06 -7.32421e-06 5.27447e-06 0.0732421 -7.82752 -15.8681 
802 0.0004 0.0004 0 -2.28e-05 -2.28e-05 3.16994e-06 0.228 31.2786 41.6245 
822 0.0002 0.0002 0 -9.83527e-06 -9.83527e-06 6.67645e-06 0.0983527 -20.4667 -22.0745 
842 0.0006 0.0006 0 -2.0656e-05 -2.0656e-05 2.21072e-06 0.20656 46.3567 66.7578 
862 0.0002 0.0002 0 -1.03986e-05 -1.03986e-05 5.14981e-06 0.103986 18.2027 28.114 
882 0.0004 0.0004 0 -1.41351e-05 -1.41351e-05 8.12784e-09 0.141351 23.2193 61.6867 
902 0.0006 0.0006 0 -2.20465e-05 -2.20465e-05 -1.21961e-05 0.220465 91.5019 75.8028 
922 0.0002 0.0002 0 -7.61619e-06 -7.61619e-06 -7.79358e-07 0.0761619 20.7429 20.1103 
942 0.0006 0.0006 0 -2.64129e-05 -2.64129e-05 -5.88168e-06 0.264129 91.9299 128.437 
962 0.0002 0.0002 0 1.10697e-06 1.10697e-06 -1.36878e-05 1.13749 797.901 602.901 
982 0.0062 0.0062 0 0.000196913 0.000196913 -7.36537e-06 3.22046 1048.84 1203.27 
1002 0.0078 0.0078 0 0.000160159 0.000160159 -1.8055e-05 4.6318 1305.98 1639.37 
1022 0.009 0.009 0 0.000273126 0.000273126 1.05418e-07 5.11526 2221.16 2533.84 
1042 0.0084 0.0084 0 0.000186603 0.000186603 -6.07129e-05 4.36782 1318.41 1835.61 
1062 0.006 0.006 0 0.000157784 0.000157784 2.15994e-05 2.95626 924.262 1351.9 
1082 0.0084 0.0084 0 0.000224901 0.000224901 -1.81952e-05 4.66588 1408.92 1857.54 
1102 0.0096 0.0096 0 0.000187839 0.000187839 1.83685e-05 4.83221 1158.68 1288.35 
1122 0.011 0.011 0 0.00018959 0.00018959 5.53713e-05 5.33077 1819.28 2536.68 
1142 0.008 0.008 0 0.000151899 0.000151899 1.55142e-05 3.86577 1069.95 1324.59 
1162 0.0056 0.0056 0 0.000130674 0.000130674 -3.271e-05 3.03032 1179.93 1761.92 
1182 0.0086 0.0086 0 0.000223756 0.000223756 7.26759e-05 4.95247 1330.44 1755.79 
1202 0.0076 0.0076 0 0.000175446 0.000175446 -4.22155e-06 3.93281 876.065 1473.17 
1222 0.0068 0.0068 0 0.000127617 0.000127617 -3.71891e-05 3.74805 1275.75 1792.93 
1242 0.0082 0.0082 0 0.000224031 0.000224031 -1.82656e-05 4.3519 1753.85 2459.79 
1262 0.0088 0.0088 0 0.000208703 0.000208703 -4.4316e-06 4.96379 2338.58 3021.58 
3 0.0024 0.0024 0 0.000109985 0.000109985 5.85937e-05 10.9196 2435.17 4587.93 
23 0.0672 0.0672 0 0.0038929 0.0038929 -3.35612e-05 38.929 9512.36 13636.1 
43 0.0766 0.0766 0 0.00419 0.00419 3.78679e-05 41.9 9829.17 13460.1 
63 0.0854 0.0854 0 0.00465913 0.00465913 0.000148636 46.5913 8544.35 11880.5 
83 0.0818 0.0818 0 0.00424912 0.00424912 1.81866e-05 42.4912 7599.74 11485.3 
103 0.0854 0.0854 0 0.00457615 0.00457615 0.000186906 45.7615 8443.96 11420.2 
123 0.08 0.08 0 0.00429217 0.00429217 -1.62838e-05 42.9217 7564.85 10486.1 
143 0.08 0.08 0 0.00428124 0.00428124 -8.00775e-05 42.8124 6078.05 8902.25 
163 0.0884 0.0884 0 0.00463032 0.00463032 -9.5738e-05 46.3032 6690.37 9297.39 
183 0.0886 0.0886 0 0.00466732 0.00466732 -8.6562e-05 46.6732 8840.37 12859.5 
203 0.0918 0.0918 0 0.00483175 0.00483175 -0.000214906 48.3175 8032.46 10342.1 
223 0.0854 0.0854 0 0.00439209 0.00439209 2.70757e-05 43.9209 6909.03 10315.3 
243 0.0774 0.0774 0 0.00410101 0.00410101 -0.000236431 41.0101 6205.79 9489.31 
263 0.0772 0.0772 0 0.00407722 0.00407722 -0.000185153 40.7722 7812.02 11264.8 
283 0.0792 0.0792 0 0.00429263 0.00429263 0.000133625 42.9263 9536.35 13230 
303 0.0732 0.0732 0 0.00413561 0.00413561 -8.24003e-05 41.3561 9093.69 12084.7 
323 0.003 0.003 0 0.00016184 0.00016184 -1.1285e-05 18.1207 2032.38 3608.16 
343 0.0096 0.0096 0 0.000236731 0.000236731 -4.43249e-05 4.52358 1284.96 2043.18 
363 0.0088 0.0088 0 0.000175726 0.000175726 -6.4077e-06 4.45981 1297.93 1894.65 
383 0.0102 0.0102 0 0.000196556 0.000196556 7.426e-05 5.42393 1506.2 2133.78 
403 0.0114 0.0114 0 0.000181123 0.000181123 -2.07776e-05 5.81711 1621.43 2101.53 
423 0.0074 0.0074 0 0.000224318 0.000224318 -8.64202e-07 3.96401 1227.28 1913.89 
443 0.0102 0.0102 0 0.000181073 0.000181073 -3.13191e-05 5.42075 1228.04 1488.33 
463 0.0088 0.0088 0 0.000164583 0.000164583 1.71024e-05 4.94653 1305.6 1985.52 
483 0.0092 0.0092 0 0.000146561 0.000146561 3.04791e-05 4.09334 1338.87 2224.08 
503 0.0072 0.0072 0 0.000164525 0.000164525 1.80969e-05 3.15423 1083 1176.09 
523 0.0114 0.0114 0 0.000231232 0.000231232 5.11759e-06 6.40349 1780.67 2340.74 
543 0.012 0.012 0 0.000269608 0.000269608 -2.03066e-05 6.24511 1599.83 2142.77 
563 0.0096 0.0096 0 0.000151295 0.000151295 -1.70136e-05 4.40473 700.443 1122.39 
583 0.0068 0.0068 0 0.000150325 0.000150325 -5.57498e-05 3.51473 1286.04 1592.7 
603 0.0072 0.0072 0 0.000173653 0.000173653 2.42631e-05 4.47097 1422.79 1652.43 
623 0.0066 0.0066 0 0.00016206 0.00016206 -5.36396e-05 3.20581 844.408 1381.77 
643 0 0 0 0 0 0 0 0 0 
663 0.0004 0.0004 0 -1.43328e-05 -1.43328e-05 3.67934e-06 0.143328 51.3305 43.828 
683 0 0 0 0 0 0 0 0 0 
703 0.0002 0.0002 0 -1.20005e-05 -1.20005e-05 -3.39499e-06 0.120005 27.7083 40.3226 
723 0 0 0 0 0 0 0 0 0 
743 0.0004 0.0004 0 -8.39578e-06 -8.39578e-06 -9.85835e-06 0.0839578 86.6472 88.2519 
763 0 0 0 0 0 0 0 0 0 
783 0.0004 0.0004 0 -2.59367e-05 -2.59367e-05 8.24363e-06 0.259367 174.047 183.631 
803 0.0002 0.0002 0 -6.22293e-06 -6.22293e-06 -2.69093e-07 0.0622293 -6.91877 -5.90574 
823 0.0004 0.0004 0 -1.02227e-05 -1.02227e-05 3.33886e-06 0.102227 20.9666 65.7637 
843 0.0002 0.0002 0 -9.88169e-06 -9.88169e-06 -6.67315e-06 0.0988169 23.2373 102.365 
863 0.0002 0.0002 0 -9.30965e-06 -9.30965e-06 -7.26545e-06 0.0930965 13.9921 6.7111 
883 0.0002 0.0002 0 -9.98435e-06 -9.98435e-06 -2.33666e-06 0.0998435 16.7231 22.4063 
903 0.0002 0.0002 0 -1.63933e-05 -1.63933e-05 -1.18424e-05 0.163933 147.916 161.14 
923 0 0 0 0 0 0 0 0 0 
943 0.0002 0.0002 0 -6.01872e-06 -6.01872e-06 5.20811e-06 0.0601872 4.36408 4.68213 
963 0.0004 0.0004 0 1.01181e-05 1.01181e-05 3.69707e-06 1.18143 749.161 587.031 
983 0.0088 0.0088 0 0.000205659 0.000205659 1.92452e-07 4.13611 1383.16 1830.59 
1003 0.0082 0.0082 0 0.000204274 0.000204274 -2.8954e-05 4.85288 1771.25 2147.48 
1023 0.007 0.007 0 0.000150248 0.000150248 4.03098e-05 3.31974 1024.7 1332.77 
1043 0.0084 0.0084 0 0.000165206 0.000165206 5.46545e-05 4.5718 1243.06 1559.84 
1063 0.008 0.008 0 0.000198977 0.000198977 3.98387e-05 4.2227 1241.02 1589.28 
1083 0.009 0.009 0 0.000191307 0.000191307 -2.5839e-05 4.69727 1534.63 1908.8 
1103 0.0096 0.0096 0 0.000166398 0.000166398 1.26087e-05 4.67838 1602.16 2703.95 
1123 0.0084 0.0084 0 0.000169266 0.000169266 7.12065e-07 4.78274 1162.38 1488.97 
1143 0.0078 0.0078 0 0.000162797 0.000162797 4.10229e-05 4.03362 658.959 998.872 
1163 0.0078 0.0078 0 0.000196131 0.000196131 3.98283e-05 3.98691 1508.59 1669.61 
1183 0.0088 0.0088 0 0.000208563 0.000208563 7.37219e-05 4.17147 1952.05 2417.64 
1203 0.0106 0.0106 0 0.000226541 0.000226541 -3.67323e-05 5.95158 1598.91 2535.89 
1223 0.0112 0.0112 0 0.000240325 0.000240325 4.22287e-05 5.72573 1980.43 2734.75 
1243 0.0094 0.0094 0 0.000210386 0.000210386 4.18978e-05 4.73879 1799.07 2476 
1263 0.0102 0.0102 0 0.000281588 0.000281588 7.33686e-06 4.95273 1582.66 2223.86 
4 0.002 0.002 0 6.60841e-05 6.60841e-05 -2.61836e-05 10.3003 3331.45 5667.37 
24 0.0698 0.0698 0 0.00418064 0.00418064 -5.01182e-05 41.8064 11080.5 15348.6 
44 0.0744 0.0744 0 0.00412681 0.00412681 -0.000171384 41.2681 8459.44 11024.2 
64 0.0774 0.0774 0 0.00409402 0.00409402 0.000148793 40.9402 7767.03 11313.4 
84 0.085 0.085 0 0.00443868 0.00443868 1.82674e-05 44.3868 8035.43 10491 
104 0.0806 0.0806 0 0.00428274 0.00428274 -0.000129766 42.8274 7563.86 10542.5 
124 0.0912 0.0912 0 0.00486297 0.00486297 -7.30491e-05 48.6297 7439.26 10495.2 
144 0.0858 0.0858 0 0.00462888 0.00462888 2.96361e-05 46.2888 7195.94 10757.2 
164 0.0786 0.0786 0 0.00395555 0.00395555 -0.000195596 39.5555 6201.74 8495.14 
184 0.089 0.089 0 0.00468676 0.00468676 3.66056e-05 46.8676 9375.75 12267.4 
204 0.0794 0.0794 0 0.00408683 0.00408683 6.06886e-06 40.8683 6687.12 9933.19 
224 0.0838 0.0838 0 0.0043831 0.0043831 9.29009e-05 43.831 8407.57 11641.3 
244 0.0772 0.0772 0 0.0042038 0.0042038 -9.06937e-05 42.038 6479.18 9379.46 
264 0.0808 0.0808 0 0.00412098 0.00412098 4.94131e-06 41.2098 7726.03 10938.3 
284 0.0734 0.0734 0 0.00399262 0.00399262 0.000198058 39.9262 9046.05 11767.6 
304 0.072 0.072 0 0.00397493 0.00397493 0.000103024 39.7493 8415.38 12547.4 
324 0.0036 0.0036 0 0.000207098 0.000207098 8.99721e-06 18.4624 7346.17 9353.97 
344 0.0082 0.0082 0 0.000139715 0.000139715 -1.51985e-05 4.20512 1060.94 1353.62 
364 0.0088 0.0088 0 0.000237589 0.000237589 -2.50109e-05 4.66231 2562.53 3276.43 
384 0.009 0.009 0 0.000208739 0.000208739 -1.09186e-06 4.59326 1134.54 1542.4 
404 0.0086 0.0086 0 0.000184086 0.000184086 5.23899e-05 4.33403 1212.08 1724.63 
424 0.0088 0.0088 0 0.000208852 0.000208852 8.82928e-05 3.85825 1140.85 1850.53 
444 0.0106 0.0106 0 0.000229095 0.000229095 -7.30606e-05 5.37608 1683.26 2654.33 
464 0.0096 0.0096 0 0.000194986 0.000194986 -5.27242e-05 5.04834 1849.01 2206.52 
484 0.0098 0.0098 0 0.000231857 0.000231857 -4.31428e-07 4.46769 1326.09 1766.29 
504 0.0082 0.0082 0 0.00026658 0.00026658 -9.32979e-05 4.21085 1736.6 1992.17 
524 0.008 0.008 0 0.000159189 0.000159189 2.62459e-05 3.49773 647.695 1179.28 
544 0.0114 0.0114 0 0.000246032 0.000246032 5.17914e-05 5.74785 1438.77 1882.96 
564 0.0086 0.0086 0 0.000144091 0.000144091 1.55285e-05 4.72886 1036.38 1125.06 
584 0.0082 0.0082 0 0.000199277 0.000199277 -1.43037e-05 4.6155 1134.23 1715.62 
604 0.0082 0.0082 0 0.000195844 0.000195844 -4.42488e-05 3.94368 1182.02 1381.52 
624 0.0062 0.0062 0 0.000122407 0.000122407 1.22794e-05 3.2477 740.133 1036.91 
644 0.0002 0.0002 0 -1.27126e-05 -1.27126e-05 5.81795e-07 1.77782 100.744 619.395 
664 0.0008 0.0008 0 -3.97567e-05 -3.97567e-05 -6.80872e-06 0.397567 24.3495 36.3161 
684 0.0004 0.0004 0 -9.93485e-06 -9.93485e-06 7.97999e-06 0.0993485 15.315 95.0822 
704 0.0002 0.0002 0 -4.38712e-06 -4.38712e-06 -9.25562e-06 0.0438712 49.5258 64.9461 
724 0.0002 0.0002 0 -1.52534e-05 -1.52534e-05 1.07619e-06 0.152534 36.5728 11.4174 
744 0.0004 0.0004 0 -1.88072e-05 -1.88072e-05 9.23439e-08 0.188072 10.9417 17.5219 
764 0.0006 0.0006 0 -2.02776e-05 -2.02776e-05 -2.68266e-06 0.202776 -24.0157 -16.3116 
784 0 0 0 0 0 0 0 0 0 
804 0 0 0 0 0 0 0 0 0 
824 0.0004 0.0004 0 -2.19296e-05 -2.19296e-05 -2.74196e-07 0.219296 4.86196 36.4261 
844 0.0002 0.0002 0 -6.30768e-06 -6.30768e-06 -5.54585e-06 0.0630768 9.31498 12.5217 
864 0.0004 0.0004 0 -1.27618e-05 -1.27618e-05 -5.276e-06 0.127618 74.5003 109.116 
884 0.0004 0.0004 0 -1.65814e-05 -1.65814e-05 -4.12152e-06 0.165814 -20.2837 -24.6909 
904 0 0 0 0 0 0 0 0 0 
924 0.0008 0.0008 0 -4.05493e-05 -4.05493e-05 -3.07865e-06 0.405493 75.1953 168.703 
944 0.0002 0.0002 0 -9.25655e-06 -9.25655e-06 0 0.0925655 0 0 
964 0.0002 0.0002 0 4.81832e-06 4.81832e-06 1.17462e-05 0.490032 609.918 563.188 
984 0.0064 0.0064 0 0.00020201 0.00020201 3.6403e-06 3.49952 1625.66 2114.3 
1004 0.008 0.008 0 0.00022856 0.00022856 -1.93277e-05 4.04853 1181.42 1681.18 
1024 0.007 0.007 0 0.000127048 0.000127048 -4.88946e-05 3.26402 955.949 1408.86 
1044 0.0084 0.0084 0 0.000210486 0.000210486 4.55054e-05 4.95147 831.781 1473.15 
1064 0.0096 0.0096 0 0.000273048 0.000273048 5.29715e-06 5.81102 2123.64 2693.91 
1084 0.0082 0.0082 0 0.000215468 0.000215468 3.79425e-05 4.2908 1340.72 1742.05 
1104 0.008 0.008 0 0.000167156 0.000167156 -1.46554e-05 4.47502 1697.84 2107.09 
1124 0.008 0.008 0 0.000197889 0.000197889 1.01894e-05 3.97623 1463.03 2092.04 
1144 0.01 0.01 0 0.00021931 0.00021931 -2.35355e-05 5.35152 1720.81 2277.79 
1164 0.0082 0.0082 0 0.000217342 0.000217342 3.9789e-05 4.40152 1278.96 2015.91 
1184 0.0106 0.0106 0 0.000287257 0.000287257 4.0363e-05 5.68769 2550.15 3133.51 
1204 0.0096 0.0096 0 0.00022931 0.00022931 3.23106e-05 4.96355 2119.07 2950.52 
1224 0.0106 0.0106 0 0.000244207 0.000244207 -2.52463e-05 5.75036 1468.04 2273.54 
1244 0.0088 0.0088 0 0.000228172 0.000228172 -1.13641e-05 4.81144 1872.8 2744.59 
1264 0.0096 0.0096 0 0.000259183 0.000259183 -7.2669e-05 4.20546 1826.57 2474.93 
5 0.0014 0.0014 0 9.649e-05 9.649e-05 -2.09297e-05 11.4372 3495.05 4671.47 
25 0.0632 0.0632 0 0.00385253 0.00385253 3.43063e-05 38.5253 9279.74 12896.7 
45 0.0742 0.0742 0 0.00421977 0.00421977 9.8929e-06 42.1977 9269.17 11827.5 
65 0.081 0.081 0 0.00431626 0.00431626 -0.00013141 43.1626 8154.44 11645.7 
85 0.0806 0.0806 0 0.00455083 0.00455083 0.000125525 45.5083 9485.74 13062.5 
105 0.0812 0.0812 0 0.00421453 0.00421453 6.54301e-05 42.1453 7721.69 11809.3 
125 0.087 0.087 0 0.00456012 0.00456012 -7.37957e-05 45.6012 7378.11 10428.4 
145 0.0792 0.0792 0 0.00429714 0.00429714 -2.04613e-05 42.9714 6658.46 9348.8 
165 0.0832 0.0832 0 0.00443064 0.00443064 3.80848e-05 44.3064 7401.49 10659.8 
185 0.084 0.084 0 0.00440371 0.00440371 -0.000172086 44.0371 7406.95 10493.1 
205 0.0856 0.0856 0 0.0045417 0.0045417 -4.73256e-05 45.417 8917.2 12044.6 
225 0.0898 0.0898 0 0.00469234 0.00469234 1.71729e-05 46.9234 8652.6 11317.9 
245 0.0852 0.0852 0 0.00443037 0.00443037 -3.57035e-05 44.3037 9254.8 11733.2 
265 0.0796 0.0796 0 0.00437705 0.00437705 -0.000132706 43.7705 7717.18 10790.5 
285 0.0828 0.0828 0 0.0043983 0.0043983 -8.71413e-05 43.983 8983.42 12212.4 
305 0.067 0.067 0 0.00370019 0.00370019 -0.000128008 37.0019 7889.64 10849.6 
325 0.0032 0.0032 0 0.000189485 0.000189485 -3.0463e-05 19.7836 6576.54 8415.23 
345 0.0102 0.0102 0 0.000210707 0.000210707 -3.17154e-05 5.21441 1448.12 2089.61 
365 0.0088 0.0088 0 0.000195162 0.000195162 1.83333e-05 4.79712 1826.63 2487.2 
385 0.0102 0.0102 0 0.00031449 0.00031449 -4.88432e-05 5.30328 1985.3 2701.68 
405 0.0084 0.0084 0 0.000183541 0.000183541 -4.21727e-05 4.23573 2371.38 2951.03 
425 0.009 0.009 0 0.000241282 0.000241282 -1.54739e-05 4.6016 1740.92 2450.05 
445 0.0094 0.0094 0 0.000196361 0.000196361 -3.61204e-05 5.40791 2289.88 3018.41 
465 0.0086 0.0086 0 0.000232961 0.000232961 -3.42891e-05 4.26428 1235.73 1677.07 
485 0.0084 0.0084 0 0.000236605 0.000236605 -5.78984e-05 3.86011 1625.18 1942.08 
505 0.009 0.009 0 0.000182544 0.000182544 7.46323e-05 4.90194 1534.34 1928.96 
525 0.0088 0.0088 0 0.000209623 0.000209623 1.63368e-05 5.15761 1737.97 2569.44 
545 0.0088 0.0088 0 0.000189471 0.000189471 2.81402e-05 4.87414 1587.97 1833.3 
565 0.0074 0.0074 0 0.000137234 0.000137234 2.05383e-05 4.24479 677.35 786.601 
585 0.0106 0.0106 0 0.000296443 0.000296443 9.04301e-06 5.6465 2013.92 2561.99 
605 0.0068 0.0068 0 0.000213517 0.000213517 -6.13778e-05 3.27479 1335.25 1475.73 
625 0.0066 0.0066 0 0.000241992 0.000241992 -2.94389e-05 3.79211 1323.55 1912.49 
645 0 0 0 0 0 0 0 0 0 
665 0.0006 0.0006 0 -3.84456e-05 -3.84456e-05 -2.23575e-05 0.384456 163.333 186.723 
685 0.0002 0.0002 0 -9.39595e-06 -9.39595e-06 1.70409e-05 0.0939595 24.4166 25.7166 
705 0.0002 0.0002 0 -6.42315e-06 -6.42315e-06 -2.54838e-07 0.0642315 -3.2057 32.395 
725 0.0006 0.0006 0 -2.76995e-05 -2.76995e-05 8.16719e-06 0.276995 62.1627 70.7544 
745 0.0002 0.0002 0 -8.51321e-06 -8.51321e-06 1.31561e-05 0.0851321 55.7743 85.5447 
765 0.0004 0.0004 0 -2.5987e-05 -2.5987e-05 -4.46381e-06 0.25987 71.4068 74.3739 
785 0.0006 0.0006 0 -2.73338e-05 -2.73338e-05 -4.26746e-07 0.273338 4.6689 57.5375 
805 0.0006 0.0006 0 -3.3367e-05 -3.3367e-05 -1.17877e-05 0.33367 37.1237 66.0645 
825 0.0004 0.0004 0 -2.46684e-05 -2.46684e-05 -4.49721e-06 0.246684 -33.0998 64.1128 
845 0 0 0 0 0 0 0 0 0 
865 0.0002 0.0002 0 -1.43357e-05 -1.43357e-05 3.3066e-06 0.143357 49.3763 50.324 
885 0.0002 0.0002 0 -1.78549e-05 -1.78549e-05 1.29173e-05 0.178549 108.431 108.728 
905 0.0002 0.0002 0 -9.71462e-06 -9.71462e-06 5.94778e-06 0.0971462 33.0823 44.5283 
925 0.0002 0.0002 0 -5.97182e-06 -5.97182e-06 0 0.0597182 7.22224e-15 7.22224e-15 
945 0.0004 0.0004 0 -9.92535e-06 -9.92535e-06 6.40521e-07 0.0992535 8.64946 24.9901 
965 0.0002 0.0002 0 6.50038e-06 6.50038e-06 -8.32538e-07 1.30642 1044.74 1139.26 
985 0.0082 0.0082 0 0.00015322 0.00015322 -3.10345e-06 4.59641 1046.3 1471.38 
1005 0.007 0.007 0 0.000122031 0.000122031 -7.10992e-06 3.60567 504.863 1114.96 
1025 0.0088 0.0088 0 0.000154672 0.000154672 -2.36083e-05 4.80877 1402.15 1771.47 
1045 0.011 0.011 0 0.000233807 0.000233807 9.5901e-06 5.51178 1753.86 2378.92 
1065 0.01 0.01 0 0.000260452 0.000260452 -2.04593e-05 4.93681 1812.38 2208.69 
1085 0.0096 0.0096 0 0.00020454 0.00020454 1.12019e-05 5.70837 1605.28 2347.32 
1105 0.0088 0.0088 0 0.000195821 0.000195821 2.97879e-05 4.48088 1037 1371.94 
1125 0.0096 0.0096 0 0.000207864 0.000207864 4.70995e-05 5.64018 1445.07 1953.32 
1145 0.0104 0.0104 0 0.000233237 0.000233237 2.28772e-07 5.40389 1759.41 2324.75 
1165 0.0128 0.0128 0 0.000286437 0.000286437 1.20005e-05 6.7621 1355.74 2025.92 
1185 0.0096 0.0096 0 0.000233426 0.000233426 -3.71837e-06 5.02122 1671.38 2289.58 
1205 0.0094 0.0094 0 0.000263539 0.000263539 -1.55294e-05 5.64702 1979.46 2481.73 
1225 0.011 0.011 0 0.000274805 0.000274805 -2.83924e-06 5.89852 1757.07 2327.61 
1245 0.0084 0.0084 0 0.0001764 0.0001764 -2.42184e-05 4.55148 1362.75 1913.81 
1265 0.0102 0.0102 0 0.000230774 0.000230774 -5.56682e-06 5.15598 1659.28 2146.39 
6 0.0028 0.0028 0 0.000166248 0.000166248 2.58758e-05 20.4043 5951.32 8218.1 
26 0.0688 0.0688 0 0.00394026 0.00394026 8.63594e-05 39.4026 9171.51 13573.6 
46 0.0692 0.0692 0 0.003729 0.003729 3.86974e-06 37.29 7857.23 11218.1 
66 0.0794 0.0794 0 0.00436152 0.00436152 4.16131e-05 43.6152 8891.8 11731.5 
86 0.0864 0.0864 0 0.00462018 0.00462018 -5.55494e-05 46.2018 8464.39 11826.8 
106 0.0884 0.0884 0 0.00446251 0.00446251 0.000113618 44.6251 7917.15 10852.3 
126 0.0858 0.0858 0 0.00448108 0.00448108 -2.07935e-05 44.8108 6812.64 10163.3 
146 0.088 0.088 0 0.00461955 0.00461955 7.72668e-05 46.1955 7369.46 10571.6 
166 0.0884 0.0884 0 0.00463356 0.00463356 -4.70712e-05 46.3356 7944.86 12052.3 
186 0.0942 0.0942 0 0.00488359 0.00488359 -4.32311e-05 48.8359 7985.59 10975.3 
206 0.0832 0.0832 0 0.0042728 0.0042728 0.000150838 42.728 7641.87 10858.8 
226 0.0866 0.0866 0 0.0044674 0.0044674 -2.15061e-05 44.674 7464.53 9955.94 
246 0.0756 0.0756 0 0.00416389 0.00416389 5.10206e-05 41.6389 8758.42 12060.5 
266 0.0802 0.0802 0 0.00427914 0.00427914 2.26624e-05 42.7914 7487.29 11136.8 
286 0.0758 0.0758 0 0.00423739 0.00423739 -0.000196228 42.3739 8925.67 12867.2 
306 0.067 0.067 0 0.00363371 0.00363371 -5.57618e-05 36.3371 7315.32 11079.8 
326 0.004 0.004 0 0.000210704 0.000210704 -3.92487e-05 23.0373 7399.68 8854.55 
346 0.0086 0.0086 0 0.000242132 0.000242132 3.3471e-05 4.43826 1676.26 2394.16 
366 0.0092 0.0092 0 0.000188489 0.000188489 -2.45123e-05 4.41325 1481.43 1791.84 
386 0.0112 0.0112 0 0.000177548 0.000177548 -7.3154e-05 5.88251 2011.11 2611.74 
406 0.0104 0.0104 0 0.000310387 0.000310387 -1.9449e-05 4.98089 2011.22 2818.78 
426 0.0102 0.0102 0 0.000235104 0.000235104 -1.44656e-05 5.2819 1702.71 1986.93 
446 0.0108 0.0108 0 0.000254963 0.000254963 -1.96035e-05 5.57123 1822.23 2398.47 
466 0.0102 0.0102 0 0.000280457 0.000280457 2.34264e-05 5.82854 1991.48 2635.86 
486 0.0088 0.0088 0 0.000223987 0.000223987 3.9292e-05 4.42075 1680.68 2389.79 
506 0.0076 0.0076 0 0.000189569 0.000189569 -4.23742e-06 3.72146 1366.34 1913.29 
526 0.0072 0.0072 0 0.000180192 0.000180192 7.28351e-05 4.03255 1207.87 1418.57 
546 0.009 0.009 0 0.000180414 0.000180414 5.65765e-06 4.83671 888.542 1167.92 
566 0.0082 0.0082 0 0.000173753 0.000173753 2.21094e-05 4.40662 1064.49 1284.37 
586 0.0066 0.0066 0 0.000130706 0.000130706 9.58852e-06 3.51689 1130.04 1490.48 
606 0.005 0.005 0 0.000127724 0.000127724 -2.39348e-05 2.25129 844.413 1075.61 
626 0.005 0.005 0 0.000152431 0.000152431 -2.65591e-05 2.53824 1086.91 1560.78 
646 0 0 0 0 0 0 0 0 0 
666 0 0 0 0 0 0 0 0 0 
686 0.0004 0.0004 0 -1.327e-05 -1.327e-05 -6.97861e-06 0.1327 -3.20523 69.9014 
706 0.0006 0.0006 0 -3.60578e-05 -3.60578e-05 -1.33713e-05 0.360578 63.2164 29.6486 
726 0 0 0 0 0 0 0 0 0 
746 0.0002 0.0002 0 -8.05801e-06 -8.05801e-06 1.37194e-06 0.0805801 -20.9649 -33.3363 
766 0.0004 0.0004 0 -2.30868e-05 -2.30868e-05 3.69115e-07 0.230868 4.36511 -0.756084 
786 0.0004 0.0004 0 -1.74918e-05 -1.74918e-05 1.44407e-05 0.174918 43.3322 50.34 
806 0.0002 0.0002 0 -1.05511e-05 -1.05511e-05 4.37942e-06 0.105511 5.32178 -13.1326 
826 0.0006 0.0006 0 -2.68881e-05 -2.68881e-05 7.46717e-06 0.268881 34.0767 -7.04567 
846 0.0008 0.0008 0 -3.42947e-05 -3.42947e-05 1.49767e-05 0.342947 -29.1901 -17.3453 
866 0 0 0 0 0 0 0 0 0 
886 0 0 0 0 0 0 0 0 0 
906 0.0002 0.0002 0 -5.16343e-06 -5.16343e-06 -1.23154e-05 0.0516343 94.953 97.5826 
926 0 0 0 0 0 0 0 0 0 
946 0.0006 0.0006 0 -2.74472e-05 -2.74472e-05 -1.32844e-05 0.274472 -4.53087 -14.185 
966 0.0002 0.0002 0 -9.86531e-07 -9.86531e-07 -6.55027e-06 1.65085 353.788 390.587 
986 0.0072 0.0072 0 0.000176175 0.000176175 7.63351e-05 4.07683 1416.73 1680.28 
1006 0.0078 0.0078 0 0.000166261 0.000166261 -1.73634e-05 4.71049 1528.93 2079.71 
1026 0.0066 0.0066 0 9.59676e-05 9.59676e-05 4.18539e-05 3.54345 403.685 562.041 
1046 0.0064 0.0064 0 0.000191041 0.000191041 2.26507e-05 3.51156 1362.53 1746.79 
1066 0.0082 0.0082 0 0.000169452 0.000169452 2.49178e-05 4.26327 1194.32 1351.18 
1086 0.0074 0.0074 0 0.000114401 0.000114401 -5.39582e-05 3.98981 1108.59 1540.99 
1106 0.0082 0.0082 0 0.000164139 0.000164139 1.64199e-05 4.29345 1357.13 1764.57 
1126 0.0082 0.0082 0 9.14322e-05 9.14322e-05 1.24805e-05 4.45774 779.33 917.43 
1146 0.0082 0.0082 0 0.000178907 0.000178907 -2.72296e-05 4.05885 1047.36 1616.82 
1166 0.0094 0.0094 0 0.000190364 0.000190364 -6.36096e-05 5.14118 1485.71 1660.35 
1186 0.0086 0.0086 0 0.00019985 0.00019985 2.37403e-05 4.47024 1546.02 1979.68 
1206 0.0112 0.0112 0 0.000243709 0.000243709 -3.34763e-06 6.01342 1676.99 3014.23 
1226 0.0084 0.0084 0 0.000188004 0.000188004 -5.06303e-05 4.26326 1520.57 2052.57 
1246 0.0102 0.0102 0 0.00015425 0.00015425 3.97848e-06 5.10912 936.824 1365.39 