ITEM: TIMESTEP
25000
ITEM: NUMBER OF SURFS
1272
ITEM: BOX BOUNDS oo rr pp
0 0.3
0 0.3
-0.5 0.5
ITEM: SURFS id f_4[1] f_4[2] f_4[3] f_4[4] f_4[5] f_4[6] f_4[7] f_4[8] f_4[9] 
1 0.0014 0.0014 0 1.61486e-05 1.61486e-05 -1.11932e-05 5.12483 1387.89 1533.5 
21 0.104 0.104 0 0.00416485 0.00416485 0.000222704 41.6485 12288.7 16172.9 
41 0.1122 0.1122 0 0.00406818 0.00406818 9.67573e-05 40.6818 8881.43 12658.3 
61 0.1222 0.1222 0 0.00441485 0.00441485 4.60751e-05 44.1485 8174.37 11920.7 
81 0.1292 0.1292 0 0.0046978 0.0046978 -4.74257e-05 46.978 9328.96 13051.9 
101 0.127 0.127 0 0.00442627 0.00442627 -1.87558e-05 44.2627 7282.12 10269.1 
121 0.1298 0.1298 0 0.00453095 0.00453095 -3.04109e-05 45.3095 7980.95 11426.3 
141 0.123 0.123 0 0.00436364 0.00436364 0.000116597 43.6364 8100.62 11635.5 
161 0.1182 0.1182 0 0.00411209 0.00411209 -5.59384e-05 41.1209 6460.7 9331.09 
181 0.1218 0.1218 0 0.00421838 0.00421838 -6.18585e-05 42.1838 6765.93 9601.2 
201 0.1342 0.1342 0 0.00470249 0.00470249 0.000122242 47.0249 7231.09 9788.66 
221 0.1286 0.1286 0 0.00445445 0.00445445 7.64554e-05 44.5445 7939.17 10754.5 
241 0.1276 0.1276 0 0.0044763 0.0044763 3.20682e-05 44.763 6759.36 9978.72 
261 0.1208 0.1208 0 0.00432058 0.00432058 -6.24042e-05 43.2058 7866.53 10926.9 
281 0.1112 0.1112 0 0.00397537 0.00397537 5.35002e-05 39.7537 7411.75 10124.4 
301 0.1058 0.1058 0 0.00393461 0.00393461 -8.70977e-05 39.3461 10219.1 13441.3 
321 0.009 0.009 0 0.000374944 0.000374944 -1.96467e-05 36.9964 11170.5 13382.3 
341 0.0134 0.0134 0 0.000197993 0.000197993 3.44044e-05 4.02625 1178.76 1643.36 
361 0.015 0.015 0 0.000233687 0.000233687 -8.99833e-05 5.62043 1946.99 2862.11 
381 0.0132 0.0132 0 0.000198792 0.000198792 -1.44871e-05 4.9197 1658.57 2057.59 
401 0.0168 0.0168 0 0.00026283 0.00026283 -1.68881e-05 5.80592 1439.64 2119.8 
421 0.0146 0.0146 0 0.00019958 0.00019958 1.55461e-05 5.2401 1605.17 2062.22 
441 0.0134 0.0134 0 0.000262481 0.000262481 -5.24892e-06 5.05206 1851.58 2589.8 
461 0.0158 0.0158 0 0.000220854 0.000220854 4.4666e-05 5.73291 1260.16 1466.75 
481 0.0102 0.0102 0 0.000177116 0.000177116 4.18248e-05 3.57148 1600.06 2108.13 
501 0.0124 0.0124 0 0.000194063 0.000194063 -1.95506e-05 4.4998 1508.75 1874.37 
521 0.0158 0.0158 0 0.000263085 0.000263085 -4.45489e-05 6.01354 1966.59 2321.18 
541 0.014 0.014 0 0.000208853 0.000208853 2.71133e-06 4.77526 1394.96 1770.33 
561 0.014 0.014 0 0.000230788 0.000230788 -1.39335e-05 4.9529 1232.63 1555.51 
581 0.0146 0.0146 0 0.000259855 0.000259855 -7.80188e-05 5.26355 1514.24 2074.94 
601 0.0124 0.0124 0 0.000194419 0.000194419 -3.22005e-05 4.57563 1681.13 2098 
621 0.0092 0.0092 0 0.000153331 0.000153331 -3.52679e-06 3.13626 1057.16 1391.05 
641 0.0002 0.0002 0 2.69159e-06 2.69159e-06 4.21003e-06 0.543102 -117.161 -226.649 
661 0.0002 0.0002 0 -1.36282e-06 -1.36282e-06 2.00182e-06 0.0136282 -15.7217 -24.6588 
681 0.0006 0.0006 0 -1.25097e-05 -1.25097e-05 -2.29815e-07 0.125097 14.731 42.5482 
701 0 0 0 0 0 0 0 0 0 
721 0.0006 0.0006 0 -1.03844e-05 -1.03844e-05 -3.15159e-06 0.103844 -30.242 0.351408 
741 0 0 0 0 0 0 0 0 0 
761 0.0006 0.0006 0 -1.18634e-05 -1.18634e-05 -1.78165e-06 0.118634 -4.58886 14.3808 
781 0.0008 0.0008 0 -2.90533e-05 -2.90533e-05 -3.94172e-08 0.290533 43.4539 81.6932 
801 0.001 0.001 0 -3.65413e-05 -3.65413e-05 -1.53869e-05 0.365413 33.4674 55.611 
821 0.0004 0.0004 0 -1.26045e-05 -1.26045e-05 1.26219e-05 0.126045 27.4729 62.795 
841 0.0002 0.0002 0 -7.99303e-06 -7.99303e-06 -2.15954e-07 0.0799303 6.46186 36.9006 
861 0.0006 0.0006 0 -1.4799e-05 -1.4799e-05 1.08325e-05 0.14799 17.429 45.3953 
881 0.0002 0.0002 0 -4.76738e-06 -4.76738e-06 -3.0655e-06 0.0476738 -20.8665 -16.365 
901 0 0 0 0 0 0 0 0 0 
921 0.0004 0.0004 0 -2.04658e-05 -2.04658e-05 6.62512e-06 0.204658 -3.76626 -6.96319 
941 0.0004 0.0004 0 -8.08707e-06 -8.08707e-06 7.52132e-07 0.0808707 7.20054 15.3657 
961 0 0 0 0 0 0 0 0 0 
981 0.0104 0.0104 0 0.00020417 0.00020417 3.62076e-05 3.51803 1181.82 1360.34 
1001 0.0112 0.0112 0 0.00018329 0.00018329 2.41425e-05 4.26898 1657.39 1808.26 
1021 0.0118 0.0118 0 0.000168713 0.000168713 3.97779e-05 4.041 1164.1 1685.43 
1041 0.0132 0.0132 0 0.000193324 0.000193324 2.4598e-05 4.73545 1002.91 1360.47 
1061 0.0134 0.0134 0 0.000129223 0.000129223 6.47062e-05 4.25299 983.817 1514.99 
1081 0.0128 0.0128 0 0.00019605 0.00019605 2.34334e-05 4.94818 1486.26 1668.02 
1101 0.0132 0.0132 0 0.00018391 0.00018391 -1.85973e-05 5.10786 1385.72 1804.19 
1121 0.014 0.014 0 0.000184672 0.000184672 7.08634e-06 4.90876 1620.58 2175.06 
1141 0.014 0.014 0 0.000167154 0.000167154 -2.0594e-05 4.37855 1235.31 1941.47 
1161 0.0152 0.0152 0 0.000257315 0.000257315 -3.23491e-05 5.64974 1959.28 2840.09 
1181 0.0144 0.0144 0 0.000177635 0.000177635 6.49993e-05 4.99546 1195.61 1834.97 
1201 0.0158 0.0158 0 0.000240287 0.000240287 3.08975e-06 5.12935 1746.85 2076.99 
1221 0.0148 0.0148 0 0.000184009 0.000184009 2.3851e-07 5.26174 1550.66 2063.76 
1241 0.0122 0.0122 0 0.000166488 0.000166488 -8.31286e-06 4.45601 1275.15 1813.87 
1261 0.0144 0.0144 0 0.000261138 0.000261138 4.03342e-05 4.86976 1917.77 2652.54 
2 0.0012 0.0012 0 4.71012e-05 4.71012e-05 -2.82211e-05 3.75097 4126.5 5543.19 
22 0.1072 0.1072 0 0.00426013 0.00426013 0.000100723 42.6013 11047.8 15109.9 
42 0.1232 0.1232 0 0.00452633 0.00452633 -4.93661e-06 45.2633 9562.06 13623.3 
62 0.121 0.121 0 0.00447917 0.00447917 4.50911e-05 44.7917 7436.64 10992 
82 0.1226 0.1226 0 0.00426976 0.00426976 -1.10019e-05 42.6976 8059.55 11921.7 
102 0.1214 0.1214 0 0.00431353 0.00431353 4.03253e-05 43.1353 7368.15 10661.8 
122 0.1278 0.1278 0 0.0045075 0.0045075 3.86779e-05 45.075 7875.61 11049.9 
142 0.12 0.12 0 0.0041729 0.0041729 -1.36086e-05 41.729 7193.76 9567.1 
162 0.1282 0.1282 0 0.00444998 0.00444998 -2.46517e-05 44.4998 7098.3 10209.6 
182 0.1212 0.1212 0 0.00417966 0.00417966 -0.000111979 41.7966 6727.19 9768.56 
202 0.1292 0.1292 0 0.00454589 0.00454589 -1.5226e-05 45.4589 8722.33 11872.2 
222 0.1162 0.1162 0 0.00417791 0.00417791 5.6936e-05 41.7791 7300.16 10064.8 
242 0.1182 0.1182 0 0.00424132 0.00424132 -8.39661e-05 42.4132 8075.73 11117.9 
262 0.1316 0.1316 0 0.00463117 0.00463117 -5.46159e-05 46.3117 7829.14 11871 
282 0.11 0.11 0 0.00387539 0.00387539 -6.15409e-05 38.7539 8022.01 11483 
302 0.1132 0.1132 0 0.00420777 0.00420777 -7.54058e-05 42.0777 9338.39 13075.1 
322 0.0054 0.0054 0 0.000235014 0.000235014 1.06562e-05 24.1003 8493.25 11091.7 
342 0.013 0.013 0 0.000225173 0.000225173 4.86129e-05 4.23834 1643.29 2189.03 
362 0.0148 0.0148 0 0.000140614 0.000140614 1.99099e-05 4.9575 1720.91 2369.25 
382 0.0142 0.0142 0 0.000273774 0.000273774 -8.87903e-06 5.41512 2117.49 3111.2 
402 0.0126 0.0126 0 0.000180437 0.000180437 1.30845e-05 4.68658 1273.52 1809.24 
422 0.0156 0.0156 0 0.000198052 0.000198052 -4.44222e-06 6.06017 1786.68 2557.55 
442 0.0148 0.0148 0 0.000179983 0.000179983 -4.10196e-05 5.34333 986.759 1616.54 
462 0.0122 0.0122 0 0.000170976 0.000170976 6.80955e-06 4.09263 1456.85 2023.67 
482 0.015 0.015 0 0.000238575 0.000238575 -6.31693e-05 5.21829 1603.03 2105.11 
502 0.0116 0.0116 0 0.00015488 0.00015488 4.30325e-07 4.10363 1119.55 1567.19 
522 0.0128 0.0128 0 0.000205544 0.000205544 9.27255e-06 4.92518 1439.79 1915.81 
542 0.0128 0.0128 0 0.000209868 0.000209868 1.27634e-05 4.56818 1223.07 1634.43 
562 0.0144 0.0144 0 0.000247518 0.000247518 -5.55989e-05 5.60862 1681.47 2332.62 
582 0.0108 0.0108 0 0.000215749 0.000215749 4.70997e-05 3.66661 1399.89 1571.11 
602 0.0098 0.0098 0 0.000189066 0.000189066 1.46579e-05 3.61876 1246.98 1514.58 
622 0.0092 0.0092 0 0.000201882 0.000201882 3.7149e-05 3.64913 1167.22 1724.34 
642 0.0008 0.0008 0 -1.06967e-05 -1.06967e-05 -1.28942e-05 3.09316 616.359 1315.09 
662 0.0006 0.0006 0 -1.88032e-05 -1.88032e-05 -1.15138e-05 0.188032 33.6816 84.0482 
682 0.001 0.001 0 -2.84442e-05 -2.84442e-05 3.19766e-07 0.284442 -14.5248 91.7818 
702 0.0002 0.0002 0 -5.60047e-06 -5.60047e-06 -4.36102e-06 0.0560047 16.9946 61.1763 
722 0 0 0 0 0 0 0 0 0 
742 0.0006 0.0006 0 -1.39625e-05 -1.39625e-05 4.73132e-06 0.139625 -9.9592 -19.6231 
762 0.0012 0.0012 0 -5.60462e-05 -5.60462e-05 -1.3269e-05 0.560462 17.5774 45.735 
782 0.0008 0.0008 0 -2.08045e-05 -2.08045e-05 -7.76509e-06 0.208045 51.431 77.9839 
802 0.0004 0.0004 0 -1.99275e-05 -1.99275e-05 -2.81265e-07 0.199275 -8.49974 25.5268 
822 0.0002 0.0002 0 -5.60666e-06 -5.60666e-06 1.75506e-06 0.0560666 18.1729 10.0761 
842 0.0006 0.0006 0 -1.72965e-05 -1.72965e-05 -8.49422e-07 0.172965 -12.8422 -6.8982 
862 0.0008 0.0008 0 -1.92219e-05 -1.92219e-05 7.30416e-06 0.192219 6.498 17.0263 
882 0.0012 0.0012 0 -3.44363e-05 -3.44363e-05 -6.48963e-06 0.344363 91.1992 116.253 
902 0 0 0 0 0 0 0 0 0 
922 0.0006 0.0006 0 -1.55437e-05 -1.55437e-05 -1.73382e-05 0.155437 50.8057 50.6972 
942 0.0004 0.0004 0 -6.7491e-06 -6.7491e-06 -5.59701e-06 0.067491 31.7068 84.3172 
962 0.0002 0.0002 0 1.44001e-06 1.44001e-06 4.50634e-08 1.23368 725.282 961.373 
982 0.0092 0.0092 0 0.000187319 0.000187319 -2.50333e-05 3.21754 1150.23 1555.58 
1002 0.012 0.012 0 0.000174281 0.000174281 3.49406e-05 4.07848 1087.28 1527.91 
1022 0.0114 0.0114 0 0.000212367 0.000212367 -1.91827e-06 4.08566 1468.47 2097.49 
1042 0.0118 0.0118 0 0.000164378 0.000164378 -3.3717e-05 3.9349 1297.13 1784.97 
1062 0.013 0.013 0 0.000146556 0.000146556 -1.79099e-05 5.05548 1611.34 2313.81 
1082 0.0154 0.0154 0 0.000155852 0.000155852 3.40674e-06 5.20323 1080.95 1820.1 
1102 0.0126 0.0126 0 0.000176283 0.000176283 -7.00234e-06 4.45605 1077.67 1658.5 
1122 0.012 0.012 0 0.000132393 0.000132393 9.79029e-06 3.8977 1136.37 1383.98 
1142 0.0152 0.0152 0 0.000205459 0.000205459 -4.81076e-05 4.99513 1803.21 2209.08 
1162 0.0174 0.0174 0 0.000255423 0.000255423 -5.85675e-06 6.34366 1697.68 2401.66 
1182 0.0138 0.0138 0 0.000223802 0.000223802 -2.36517e-05 4.82646 1369.27 1939.08 
1202 0.0106 0.0106 0 0.000145463 0.000145463 1.01675e-06 4.07221 1252.78 1646.77 
1222 0.014 0.014 0 0.000243898 0.000243898 6.6108e-06 5.09911 1723.83 2494.53 
1242 0.016 0.016 0 0.00027996 0.00027996 3.30157e-05 5.36898 2063.22 2827.48 
1262 0.0132 0.0132 0 0.000226997 0.000226997 1.54786e-05 4.42507 1210.64 1641.95 
3 0.0032 0.0032 0 0.00011755 0.00011755 -6.34696e-06 8.95468 4854.13 5988.6 
23 0.11 0.11 0 0.00444201 0.00444201 6.45186e-05 44.4201 11583 15415.4 
43 0.1092 0.1092 0 0.00402945 0.00402945 -0.000107409 40.2945 8356.87 11580 
63 0.1194 0.1194 0 0.00427734 0.00427734 -0.000187185 42.7734 8342.91 11615.2 
83 0.121 0.121 0 0.00431935 0.00431935 -0.000211165 43.1935 7837.41 11244 
103 0.1256 0.1256 0 0.00427787 0.00427787 -1.3721e-06 42.7787 8088.76 11772.6 
123 0.1122 0.1122 0 0.00405264 0.00405264 -0.000118156 40.5264 7348.01 9997.45 
143 0.128 0.128 0 0.0044989 0.0044989 3.1359e-05 44.989 6930.63 10087.3 
163 0.1182 0.1182 0 0.00428612 0.00428612 -4.21552e-05 42.8612 7319.17 10469.6 
183 0.1278 0.1278 0 0.00451329 0.00451329 -0.000134858 45.1329 6439.12 9057.43 
203 0.1214 0.1214 0 0.0041933 0.0041933 -2.42481e-05 41.933 6416.17 9163.09 
223 0.1224 0.1224 0 0.00417177 0.00417177 4.49136e-05 41.7177 7740.92 10976.4 
243 0.1248 0.1248 0 0.00433925 0.00433925 4.86644e-06 43.3925 7593.24 10302.5 
263 0.1136 0.1136 0 0.00396297 0.00396297 -4.56649e-05 39.6297 7997 10845.4 
283 0.1096 0.1096 0 0.00382472 0.00382472 6.2425e-05 38.2472 8048.81 11706.8 
303 0.1078 0.1078 0 0.00412073 0.00412073 7.22836e-05 41.2073 9220.74 12246.6 
323 0.005 0.005 0 0.000202981 0.000202981 -4.71725e-05 20.3962 5655.28 9221.52 
343 0.0154 0.0154 0 0.00020886 0.00020886 4.25932e-05 5.1662 1783.97 2776.69 
363 0.0164 0.0164 0 0.000269154 0.000269154 -1.31466e-05 5.65914 1808.12 2270.8 
383 0.0168 0.0168 0 0.000268558 0.000268558 -6.3215e-05 5.61366 2264.16 2935.12 
403 0.0146 0.0146 0 0.000201813 0.000201813 -6.68416e-06 5.09811 1462.72 2034.25 
423 0.0146 0.0146 0 0.000254055 0.000254055 1.14806e-05 5.52186 2107.26 2748.39 
443 0.0134 0.0134 0 0.000126064 0.000126064 8.86976e-06 4.86406 1282.24 1494.57 
463 0.0142 0.0142 0 0.000166364 0.000166364 4.05108e-05 5.07532 1281.99 1693.17 
483 0.0118 0.0118 0 0.000235614 0.000235614 1.00248e-05 4.19934 1622.56 1880.44 
503 0.0126 0.0126 0 0.000201891 0.000201891 1.66529e-05 4.34704 1195.74 1689.21 
523 0.0146 0.0146 0 0.000243179 0.000243179 6.92414e-06 5.17002 2096.65 2616.78 
543 0.014 0.014 0 0.000164844 0.000164844 -3.99806e-07 4.77866 1374.62 1747.79 
563 0.011 0.011 0 0.000116119 0.000116119 -5.75266e-05 3.77067 873.682 1399.48 
583 0.0118 0.0118 0 0.00020085 0.00020085 3.08699e-05 4.02004 1248.92 1824.07 
603 0.0122 0.0122 0 0.000235341 0.000235341 -0.000103926 4.67203 1510.59 2007.9 
623 0.009 0.009 0 0.000154501 0.000154501 -4.31407e-06 2.96094 1038.56 1259.38 
643 0 0 0 0 0 0 0 0 0 
663 0.0002 0.0002 0 -9.1465e-06 -9.1465e-06 -1.19756e-05 0.091465 78.0622 96.7408 
683 0.0008 0.0008 0 -2.85238e-05 -2.85238e-05 -2.87981e-06 0.285238 -34.4143 -39.2916 
703 0.0006 0.0006 0 -1.6419e-05 -1.6419e-05 -6.85604e-07 0.16419 17.7991 37.0793 
723 0.0004 0.0004 0 -1.18086e-05 -1.18086e-05 -2.88004e-07 0.118086 2.30878 -24.823 
743 0.0006 0.0006 0 -2.18676e-05 -2.18676e-05 5.82273e-06 0.218676 7.12606 47.2851 
763 0.001 0.001 0 -2.49319e-05 -2.49319e-05 -1.26576e-05 0.249319 -5.89228 22.7489 
783 0.0004 0.0004 0 -1.41018e-05 -1.41018e-05 -2.57724e-06 0.141018 10.455 8.7873 
803 0.0004 0.0004 0 -9.44178e-06 -9.44178e-06 1.89971e-05 0.0944178 40.4256 49.3604 
823 0.0012 0.0012 0 -3.48232e-05 -3.48232e-05 2.14617e-05 0.348232 101.408 109.774 
843 0.0002 0.0002 0 -5.88271e-06 -5.88271e-06 -4.75538e-06 0.0588271 1.56262 -3.04555 
863 0.0002 0.0002 0 -5.12582e-06 -5.12582e-06 -6.05706e-07 0.0512582 8.82871 24.1927 
883 0 0 0 0 0 0 0 0 0 
903 0.0012 0.0012 0 -2.67993e-05 -2.67993e-05 -1.90121e-06 0.267993 65.3756 153.148 
923 0.0004 0.0004 0 -1.53549e-05 -1.53549e-05 1.96141e-07 0.153549 27.0878 35.1891 
943 0.001 0.001 0 -1.96073e-05 -1.96073e-05 4.55005e-07 0.196073 15.256 -17.432 
963 0.0004 0.0004 0 3.32902e-06 3.32902e-06 2.09502e-07 0.932561 798.874 954.706 
983 0.014 0.014 0 0.000272117 0.000272117 -1.12819e-05 4.72466 1923.33 2379.63 
1003 0.0124 0.0124 0 0.00029706 0.00029706 1.31366e-05 4.71299 2027.82 2460.84 
1023 0.0126 0.0126 0 0.000177824 0.000177824 1.49041e-05 4.0494 1094.11 1490.91 
1043 0.0132 0.0132 0 0.000189904 0.000189904 3.57477e-06 4.13571 683.679 1252.46 
1063 0.0128 0.0128 0 0.000194274 0.000194274 3.52716e-05 4.24776 1233.51 1529.78 
1083 0.0134 0.0134 0 0.000236072 0.000236072 1.01695e-05 4.95097 1744.61 2075.53 
1103 0.0134 0.0134 0 0.000210992 0.000210992 -4.08035e-05 4.44613 1472.5 1900.18 
1123 0.016 0.016 0 0.00023203 0.00023203 3.09703e-06 5.6722 1545.47 2129.41 
1143 0.0124 0.0124 0 0.000144214 0.000144214 1.77339e-05 4.11887 1298.54 1898.39 
1163 0.0106 0.0106 0 0.000151863 0.000151863 -2.85215e-05 3.31835 881.212 1403.5 
1183 0.0154 0.0154 0 0.000211828 0.000211828 -4.12104e-05 4.90649 1117.02 1622 
1203 0.015 0.015 0 0.000170035 0.000170035 3.5526e-06 4.89881 1122.43 1565.6 
1223 0.0158 0.0158 0 0.000266363 0.000266363 -6.40176e-05 5.74847 1761.37 2401.96 
1243 0.0168 0.0168 0 0.000261747 0.000261747 7.48737e-05 6.55721 2371.08 3018.83 
1263 0.0132 0.0132 0 0.00018337 0.00018337 -1.4176e-05 4.20502 1602.18 2315.75 
4 0.003 0.003 0 8.5851e-05 8.5851e-05 -6.24138e-06 12.3356 3073.68 5703.88 
24 0.0984 0.0984 0 0.00380255 0.00380255 2.80457e-05 38.0255 11241 15082 
44 0.1188 0.1188 0 0.004416 0.004416 8.88042e-05 44.16 9654.54 13516 
64 0.1142 0.1142 0 0.00405726 0.00405726 4.43029e-05 40.5726 7777.84 10454.6 
84 0.1224 0.1224 0 0.0043617 0.0043617 8.3467e-05 43.617 7961.32 10711 
104 0.1178 0.1178 0 0.00419818 0.00419818 1.21069e-05 41.9818 7079.1 10059.9 
124 0.1244 0.1244 0 0.00430573 0.00430573 -0.000107104 43.0573 7596.15 10988.8 
144 0.1282 0.1282 0 0.00451845 0.00451845 -0.000165036 45.1845 8040.89 10455.5 
164 0.1268 0.1268 0 0.0044052 0.0044052 2.5509e-05 44.052 7161.43 10417.2 
184 0.1312 0.1312 0 0.00475561 0.00475561 -7.19044e-06 47.5561 8109.82 11024.7 
204 0.1244 0.1244 0 0.0044522 0.0044522 0.000217689 44.522 7933.74 11406.2 
224 0.1206 0.1206 0 0.00428844 0.00428844 9.03465e-05 42.8844 7402.39 10146.1 
244 0.1238 0.1238 0 0.00439696 0.00439696 7.75121e-05 43.9696 7451.37 10432.8 
264 0.1232 0.1232 0 0.00437308 0.00437308 -7.70645e-05 43.7308 8831.39 12502.6 
284 0.1086 0.1086 0 0.00391721 0.00391721 -5.47673e-05 39.1721 8070.25 10805.2 
304 0.1056 0.1056 0 0.00389025 0.00389025 -1.70786e-05 38.9025 9419.75 12636.7 
324 0.0034 0.0034 0 0.000131501 0.000131501 1.23673e-05 14.7434 1448.75 2790.75 
344 0.0158 0.0158 0 0.000231352 0.000231352 -2.36193e-05 5.52252 1752.97 2620.35 
364 0.0152 0.0152 0 0.000223212 0.000223212 -2.41198e-05 4.98725 1487.62 2207.56 
384 0.0142 0.0142 0 0.000218469 0.000218469 5.94386e-05 5.19811 1702.2 2381.29 
404 0.0164 0.0164 0 0.000222177 0.000222177 1.06582e-05 5.48778 1376.19 2033.02 
424 0.0108 0.0108 0 0.000185551 0.000185551 -5.36471e-05 4.37107 1330.29 1834.52 
444 0.0126 0.0126 0 0.000169213 0.000169213 1.23467e-05 4.11744 1147.96 1494.97 
464 0.0142 0.0142 0 0.000229186 0.000229186 4.23762e-07 4.6665 1709.48 2074.55 
484 0.0152 0.0152 0 0.000226312 0.000226312 1.64937e-05 5.60237 1659.47 2136.36 
504 0.0148 0.0148 0 0.000207654 0.000207654 3.19828e-05 5.06608 1352.12 2078.05 
524 0.0122 0.0122 0 0.000191079 0.000191079 1.17504e-05 4.33927 996.632 1334.17 
544 0.0114 0.0114 0 0.000211679 0.000211679 4.82627e-05 3.94615 1203.3 1587.19 
564 0.0112 0.0112 0 0.000175017 0.000175017 6.59212e-06 3.87781 1249.38 1659.37 
584 0.0106 0.0106 0 0.000195297 0.000195297 -4.14004e-05 3.96909 1599.42 1972.01 
604 0.0106 0.0106 0 0.000211935 0.000211935 -3.50024e-05 3.93726 1359.72 1820.72 
624 0.0072 0.0072 0 0.000208799 0.000208799 3.6246e-05 2.70452 1381.13 1704.45 
644 0.0004 0.0004 0 -8.77218e-06 -8.77218e-06 -7.44795e-06 1.36297 378.314 428.639 
664 0.0002 0.0002 0 -6.39139e-06 -6.39139e-06 -4.21342e-06 0.0639139 3.33597 21.7272 
684 0.0002 0.0002 0 -3.93153e-06 -3.93153e-06 9.45918e-07 0.0393153 4.75256 8.51249 
704 0.0002 0.0002 0 -1.26554e-05 -1.26554e-05 3.00324e-06 0.126554 26.0288 6.94785 
724 0.0008 0.0008 0 -4.5236e-05 -4.5236e-05 6.63778e-07 0.45236 -0.215674 -3.10689 
744 0.001 0.001 0 -1.62238e-05 -1.62238e-05 -1.63356e-05 0.162238 48.3677 46.0652 
764 0.0002 0.0002 0 -4.62924e-06 -4.62924e-06 1.28296e-06 0.0462924 1.11149 -5.17813 
784 0.0002 0.0002 0 -8.16185e-06 -8.16185e-06 0 0.0816185 1.92593e-14 1.92593e-14 
804 0.0004 0.0004 0 -9.74053e-06 -9.74053e-06 -7.62644e-07 0.0974053 2.38479 12.8562 
824 0.0002 0.0002 0 -7.20774e-06 -7.20774e-06 -2.2585e-06 0.0720774 -14.7058 -25.8009 
844 0.0006 0.0006 0 -1.43666e-05 -1.43666e-05 -3.3528e-07 0.143666 79.5392 99.3865 
864 0.0008 0.0008 0 -2.14393e-05 -2.14393e-05 5.31347e-07 0.214393 19.0497 17.8465 
884 0.001 0.001 0 -2.52643e-05 -2.52643e-05 2.5482e-06 0.252643 52.7902 113.791 
904 0.0004 0.0004 0 -7.96753e-06 -7.96753e-06 1.44584e-05 0.0796753 57.4666 77.4356 
924 0.0002 0.0002 0 -4.30699e-06 -4.30699e-06 -4.24081e-06 0.0430699 -6.25742 -10.114 
944 0 0 0 0 0 0 0 0 0 
964 0.0016 0.0016 0 -7.65058e-06 -7.65058e-06 -1.44193e-05 6.2672 1979.86 2470.01 
984 0.01 0.01 0 0.000202716 0.000202716 1.15808e-05 3.53622 914.683 1312.84 
1004 0.0102 0.0102 0 0.00016468 0.00016468 1.16167e-05 3.6308 916.44 1431.35 
1024 0.0122 0.0122 0 0.00022676 0.00022676 1.75572e-05 4.50862 1607.8 1951.31 
1044 0.0112 0.0112 0 0.000152829 0.000152829 -1.73071e-05 3.9451 1120.82 1454.22 
1064 0.0118 0.0118 0 0.000200275 0.000200275 5.306e-05 3.96651 1052.36 1269.36 
1084 0.016 0.016 0 0.000227968 0.000227968 1.77822e-05 5.68137 1971.96 2515.36 
1104 0.0114 0.0114 0 0.000181374 0.000181374 4.55766e-06 3.52009 1006.56 1424.44 
1124 0.0152 0.0152 0 0.00028794 0.00028794 2.88708e-05 5.374 1634.73 2431.09 
1144 0.0126 0.0126 0 0.000173213 0.000173213 -3.79589e-05 4.60969 1153.63 1629.76 
1164 0.0162 0.0162 0 0.000213329 0.000213329 4.52491e-05 5.9833 1549.67 2240.49 
1184 0.0156 0.0156 0 0.000178725 0.000178725 -1.95331e-05 5.92181 1492.09 2495.2 
1204 0.0122 0.0122 0 0.000196462 0.000196462 1.94398e-05 4.43696 1554.6 2079.73 
1224 0.0158 0.0158 0 0.000229025 0.000229025 2.70679e-05 5.40238 1883.8 2380.32 
1244 0.0132 0.0132 0 0.000203925 0.000203925 2.3578e-05 4.76635 1623.22 2356.13 
1264 0.016 0.016 0 0.000245429 0.000245429 -6.67551e-05 5.4217 1624.97 2811.03 
5 0.0026 0.0026 0 7.06012e-05 7.06012e-05 1.66171e-05 10.3423 3275.29 3454.81 
25 0.098 0.098 0 0.00372322 0.00372322 8.23511e-05 37.2322 9703.53 13010.6 
45 0.1156 0.1156 0 0.00415782 0.00415782 -7.93643e-05 41.5782 9271.39 12951.2 
65 0.1166 0.1166 0 0.00400163 0.00400163 1.85124e-05 40.0163 7396.07 10214.5 
85 0.1324 0.1324 0 0.00464737 0.00464737 4.91852e-05 46.4737 8741.98 12521.5 
105 0.125 0.125 0 0.00440629 0.00440629 3.0276e-05 44.0629 7647.63 10953.9 
125 0.1332 0.1332 0 0.00464637 0.00464637 -9.56786e-06 46.4637 6614.67 9342.16 
145 0.1236 0.1236 0 0.00429933 0.00429933 0.000158525 42.9933 7590.49 10462.2 
165 0.1164 0.1164 0 0.00395235 0.00395235 -7.47971e-05 39.5235 5597.93 8331.54 
185 0.1318 0.1318 0 0.00461591 0.00461591 -0.000102603 46.1591 7175.87 10581.5 
205 0.1184 0.1184 0 0.00415985 0.00415985 2.36739e-05 41.5985 7382.37 9853.21 
225 0.1232 0.1232 0 0.00434684 0.00434684 1.00468e-05 43.4684 8506.89 11600.4 
245 0.1262 0.1262 0 0.0044153 0.0044153 -0.000175039 44.153 7846.35 11223.1 
265 0.1106 0.1106 0 0.00402614 0.00402614 3.10929e-05 40.2614 7539.37 10120.8 
285 0.116 0.116 0 0.00406337 0.00406337 3.92024e-05 40.6337 8564.55 12710.7 
305 0.1004 0.1004 0 0.00378544 0.00378544 0.000148002 37.8544 8425.61 11387.8 
325 0.0048 0.0048 0 0.00014834 0.00014834 -2.31213e-05 17.6187 4014.19 7133.59 
345 0.0124 0.0124 0 0.000200286 0.000200286 9.76252e-06 4.27518 1621.03 2431.6 
365 0.0132 0.0132 0 0.00021933 0.00021933 6.9848e-06 4.7436 1608.27 2210.81 
385 0.0138 0.0138 0 0.000214092 0.000214092 -1.17788e-05 5.00167 1724.49 2565.06 
405 0.0098 0.0098 0 0.000151183 0.000151183 1.59475e-06 3.35246 1040.59 1485.65 
425 0.0128 0.0128 0 0.000237668 0.000237668 -2.15359e-05 4.91614 1729.75 2120.86 
445 0.0156 0.0156 0 0.000248101 0.000248101 4.1107e-05 5.8105 1619.04 2146.55 
465 0.0142 0.0142 0 0.000185049 0.000185049 -3.60706e-05 4.79299 1415.59 1696.11 
485 0.0158 0.0158 0 0.000153835 0.000153835 1.92974e-05 5.64191 1481.38 2427.22 
505 0.0124 0.0124 0 0.000234132 0.000234132 8.39006e-06 4.04655 1717.61 1932.51 
525 0.013 0.013 0 0.000217573 0.000217573 2.39259e-05 4.59911 1622.71 1987.34 
545 0.014 0.014 0 0.000185318 0.000185318 1.86666e-05 4.59897 1212.7 1766.76 
565 0.0148 0.0148 0 0.000225627 0.000225627 1.92313e-05 5.31633 1727.7 2189.55 
585 0.0118 0.0118 0 0.000161397 0.000161397 -2.96882e-05 3.8952 1023.06 1334.79 
605 0.0122 0.0122 0 0.000246223 0.000246223 1.72773e-05 4.44992 1694.2 2145.58 
625 0.0112 0.0112 0 0.000174017 0.000174017 -5.13615e-05 3.94726 1054.14 1291.88 
645 0.0002 0.0002 0 -6.1097e-06 -6.1097e-06 3.49622e-06 0.392595 110.613 67.1252 
665 0.0002 0.0002 0 -4.51932e-06 -4.51932e-06 4.98141e-06 0.0451932 12.993 12.7551 
685 0.0004 0.0004 0 -1.45989e-05 -1.45989e-05 -4.66924e-06 0.145989 11.5357 32.244 
705 0 0 0 0 0 0 0 0 0 
725 0.0006 0.0006 0 -1.82474e-05 -1.82474e-05 -9.82499e-06 0.182474 11.732 26.3165 
745 0.0004 0.0004 0 -1.29397e-05 -1.29397e-05 1.84429e-06 0.129397 7.74576 21.3935 
765 0.0004 0.0004 0 -5.55903e-06 -5.55903e-06 4.94997e-07 0.0555903 45.7437 36.6597 
785 0.0004 0.0004 0 -6.87844e-06 -6.87844e-06 4.08363e-06 0.0687844 39.168 92.3557 
805 0.0004 0.0004 0 -1.06203e-05 -1.06203e-05 -3.29563e-06 0.106203 -18.607 18.9279 
825 0 0 0 0 0 0 0 0 0 
845 0.0006 0.0006 0 -1.61607e-05 -1.61607e-05 2.89118e-06 0.161607 -8.44462 13.9856 
865 0.0006 0.0006 0 -2.14262e-05 -2.14262e-05 6.7597e-06 0.214262 24.5505 20.2155 
885 0.0004 0.0004 0 -7.6805e-06 -7.6805e-06 7.60704e-07 0.076805 8.97761 9.53011 
905 0 0 0 0 0 0 0 0 0 
925 0.0006 0.0006 0 -1.76937e-05 -1.76937e-05 1.46051e-05 0.176937 -6.24306 -40.8505 
945 0.0002 0.0002 0 -8.37071e-06 -8.37071e-06 4.42709e-06 0.0837071 44.9804 47.417 
965 0.0002 0.0002 0 3.85689e-07 3.85689e-07 2.28962e-06 0.580051 123.247 182.278 
985 0.0098 0.0098 0 0.000138555 0.000138555 -1.6565e-05 3.19847 863.425 1226.57 
1005 0.0108 0.0108 0 0.000128848 0.000128848 -3.64743e-05 4.25542 1000.55 1286.31 
1025 0.0112 0.0112 0 0.000168981 0.000168981 2.31838e-05 4.13597 1236.62 1344.68 
1045 0.011 0.011 0 0.000144903 0.000144903 2.58686e-06 3.515 843.842 1267.51 
1065 0.0124 0.0124 0 0.000158267 0.000158267 1.08966e-05 4.45194 1262.64 1622.42 
1085 0.0122 0.0122 0 0.000230589 0.000230589 -1.34472e-05 4.47779 1633.47 2139.65 
1105 0.0128 0.0128 0 0.000239802 0.000239802 -1.90178e-05 4.44984 1709.44 2257.48 
1125 0.0138 0.0138 0 0.000237287 0.000237287 -3.68763e-05 5.21353 1988.09 2536.38 
1145 0.0118 0.0118 0 0.000205559 0.000205559 3.36021e-05 4.4622 1805.67 2437.91 
1165 0.015 0.015 0 0.000220578 0.000220578 -5.64208e-05 4.79987 1571.58 2205.72 
1185 0.0154 0.0154 0 0.000230005 0.000230005 1.56496e-05 6.06561 1724.12 2345.79 
1205 0.0128 0.0128 0 0.000141944 0.000141944 5.62787e-05 4.47733 1437.09 1993.72 
1225 0.0132 0.0132 0 0.000233608 0.000233608 6.40422e-05 4.6626 1675.63 2555.4 
1245 0.0148 0.0148 0 0.000253525 0.000253525 2.84608e-05 5.46839 1923.83 2579.95 
1265 0.0196 0.0196 0 0.000317809 0.000317809 6.89276e-05 6.94912 2374.57 3458.01 
6 0.0036 0.0036 0 0.000103972 0.000103972 2.29493e-05 12.3847 2162.39 4224.92 
26 0.0912 0.0912 0 0.00370827 0.00370827 -4.71925e-05 37.0827 8905.09 12007.2 
46 0.1162 0.1162 0 0.00413655 0.00413655 -5.7894e-05 41.3655 8288.26 10882.1 
66 0.108 0.108 0 0.00406078 0.00406078 -5.18173e-06 40.6078 7427.42 10662.4 
86 0.1206 0.1206 0 0.0043655 0.0043655 0.000152474 43.655 7935.89 11002.5 
106 0.13 0.13 0 0.00447357 0.00447357 2.35573e-05 44.7357 7631.99 9975.57 
126 0.1268 0.1268 0 0.00465636 0.00465636 1.68506e-05 46.5636 8043.01 11481.1 
146 0.126 0.126 0 0.00453003 0.00453003 0.000151789 45.3003 7678.53 10774.6 
166 0.1354 0.1354 0 0.00478016 0.00478016 -8.32259e-05 47.8016 7906.36 10569.9 
186 0.1174 0.1174 0 0.00418296 0.00418296 -0.000104351 41.8296 6574.64 9061.49 
206 0.1246 0.1246 0 0.0043893 0.0043893 1.33557e-05 43.893 7671.54 10641.8 
226 0.128 0.128 0 0.00438497 0.00438497 8.03903e-05 43.8497 6460.9 9963.92 
246 0.1304 0.1304 0 0.00468433 0.00468433 0.000215819 46.8433 8248.36 11085.1 
266 0.117 0.117 0 0.00407477 0.00407477 -0.000160635 40.7477 8146.13 11691.8 
286 0.112 0.112 0 0.00413332 0.00413332 -2.09848e-05 41.3332 9402.88 12635 
306 0.0976 0.0976 0 0.00377121 0.00377121 -4.8553e-05 37.7121 8852.71 11968.3 
326 0.0044 0.0044 0 0.000168605 0.000168605 -1.35211e-06 17.3967 7293.13 10546.5 
346 0.0118 0.0118 0 0.000165266 0.000165266 -3.31686e-05 3.95122 985.179 1742.73 
366 0.015 0.015 0 0.000179972 0.000179972 5.88623e-06 4.85524 1288.51 1799.85 
386 0.0134 0.0134 0 0.000224189 0.000224189 -5.14064e-05 4.82005 1760.94 2652.52 
406 0.0118 0.0118 0 0.000221548 0.000221548 3.56366e-05 3.90099 1482.15 1967.68 
426 0.0148 0.0148 0 0.00020043 0.00020043 4.10643e-05 4.79103 1347.1 2326.48 
446 0.012 0.012 0 0.000176861 0.000176861 1.708e-05 4.55845 1438.3 1798.82 
466 0.015 0.015 0 0.00029839 0.00029839 7.14524e-05 4.69249 1762.46 2294.3 
486 0.0144 0.0144 0 0.000202141 0.000202141 -6.01467e-07 5.10551 1721.13 2466.36 
506 0.0124 0.0124 0 0.000202016 0.000202016 2.38684e-06 4.80911 1359.88 1920.9 
526 0.0134 0.0134 0 0.00021864 0.00021864 -1.83386e-05 4.87087 1417.57 2064.8 
546 0.0106 0.0106 0 0.000138742 0.000138742 -1.45316e-05 3.9049 938.888 1156.25 
566 0.0118 0.0118 0 0.000254848 0.000254848 2.79471e-05 4.33453 1802.81 2120.09 
586 0.0104 0.0104 0 0.000157276 0.000157276 -1.76255e-06 3.68991 1120.36 1362.41 
606 0.011 0.011 0 0.000185806 0.000185806 -1.03015e-05 3.26208 1082.97 1331.16 
626 0.0106 0.0106 0 0.000198381 0.000198381 5.6441e-07 3.69287 1445.02 1809.39 
646 0.0002 0.0002 0 3.16583e-06 3.16583e-06 2.33968e-07 0.220672 86.1671 89.2878 
666 0.0002 0.0002 0 -4.12175e-06 -4.12175e-06 -4.38484e-06 0.0412175 31.6213 33.281 
686 0.0006 0.0006 0 -1.67015e-05 -1.67015e-05 -2.90105e-06 0.167015 10.1502 56.6986 
706 0.0004 0.0004 0 -1.00689e-05 -1.00689e-05 -8.43894e-06 0.100689 12.5175 4.53237 
726 0.0002 0.0002 0 -5.44764e-06 -5.44764e-06 -7.73794e-07 0.0544764 -4.38118 17.5567 
746 0.0004 0.0004 0 -1.00483e-05 -1.00483e-05 -5.93351e-06 0.100483 6.37829 3.06042 
766 0.0004 0.0004 0 -1.27656e-05 -1.27656e-05 -9.93667e-07 0.127656 18.63 55.8904 
786 0 0 0 0 0 0 0 0 0 
806 0.0004 0.0004 0 -8.40856e-06 -8.40856e-06 3.80597e-06 0.0840856 17.067 24.4299 
826 0.0006 0.0006 0 -2.72361e-05 -2.72361e-05 -8.22731e-06 0.272361 51.7548 100.937 
846 0.0006 0.0006 0 -9.71222e-06 -9.71222e-06 5.65949e-07 0.0971222 38.7673 91.8506 
866 0.0002 0.0002 0 -8.48848e-06 -8.48848e-06 -4.40888e-06 0.0848848 -14.1988 -23.7737 
886 0.0004 0.0004 0 -1.18334e-05 -1.18334e-05 5.20695e-07 0.118334 39.5237 69.5296 
906 0.0004 0.0004 0 -1.10069e-05 -1.10069e-05 5.98293e-06 0.110069 42.1493 40.3982 
926 0.0004 0.0004 0 -5.28791e-06 -5.28791e-06 -2.00927e-06 0.0528791 6.15191 16.1374 
946 0.0004 0.0004 0 -1.19295e-05 -1.19295e-05 -1.33742e-08 0.119295 -6.60654 -18.0254 
966 0 0 0 0 0 0 0 0 0 
986 0.0096 0.0096 0 0.000184845 0.000184845 -3.33625e-06 3.34085 1257.07 1635.19 
1006 0.01 0.01 0 0.00012733 0.00012733 2.54167e-05 3.63673 946.701 1291.93 
1026 0.013 0.013 0 0.000186431 0.000186431 -1.47231e-05 4.50257 1430.18 1804.84 
1046 0.015 0.015 0 0.000208305 0.000208305 2.63437e-05 5.31605 1388.62 1805.7 
1066 0.0134 0.0134 0 0.000158797 0.000158797 -1.04454e-05 4.48106 1146.36 1786.65 
1086 0.016 0.016 0 0.00023361 0.00023361 -4.84838e-06 5.75134 1857.97 2376 
1106 0.0138 0.0138 0 0.000190993 0.000190993 -2.57978e-05 5.33419 1441.16 2119.87 
1126 0.0172 0.0172 0 0.000253798 0.000253798 -1.10241e-05 5.78537 2090.3 2593.17 
1146 0.014 0.014 0 0.000174285 0.000174285 6.50623e-06 5.12339 1479.13 2122.57 