ITEM: TIMESTEP
25000
ITEM: NUMBER OF SURFS
1272
ITEM: BOX BOUNDS oo rr pp
0 0.3
0 0.3
-0.5 0.5
ITEM: SURFS id f_4[1] f_4[2] f_4[3] f_4[4] f_4[5] f_4[6] f_4[7] f_4[8] f_4[9] 
1 0.006 0.006 0 4.85945e-05 4.85945e-05 8.00904e-06 6.64338 3511.58 4339.51 
21 0.3462 0.3462 0 0.00412231 0.00412231 1.63429e-05 41.2231 11157.2 14637.1 
41 0.3808 0.3808 0 0.00419207 0.00419207 -3.14951e-05 41.9207 8822.67 12349.4 
61 0.3984 0.3984 0 0.00426964 0.00426964 -3.58964e-05 42.6964 7979.38 11227 
81 0.415 0.415 0 0.00437011 0.00437011 -2.07314e-05 43.7011 7493.92 10408.3 
101 0.414 0.414 0 0.00440696 0.00440696 -3.52178e-05 44.0696 7751.64 10705.4 
121 0.415 0.415 0 0.00429826 0.00429826 1.0459e-05 42.9826 7009.91 10216.9 
141 0.4262 0.4262 0 0.00453006 0.00453006 -6.98195e-06 45.3006 7609.37 10658.9 
161 0.4142 0.4142 0 0.00436599 0.00436599 3.76872e-05 43.6599 7073.62 10284.7 
181 0.4236 0.4236 0 0.00456339 0.00456339 -3.37002e-05 45.6339 7748.75 10782.6 
201 0.4384 0.4384 0 0.00456208 0.00456208 2.9438e-05 45.6208 7590.6 10925.6 
221 0.4056 0.4056 0 0.00429438 0.00429438 2.91951e-06 42.9438 7519.74 10366 
241 0.4012 0.4012 0 0.00427339 0.00427339 -7.82933e-06 42.7339 7194.1 10027.6 
261 0.3992 0.3992 0 0.0042055 0.0042055 6.95138e-05 42.055 7751.49 11380.7 
281 0.4012 0.4012 0 0.00435613 0.00435613 2.7094e-05 43.5613 7936.27 11100.2 
301 0.3694 0.3694 0 0.0042004 0.0042004 2.55941e-06 42.004 9823.39 13778 
321 0.024 0.024 0 0.000311542 0.000311542 -4.18575e-06 30.0274 8135.81 10641.6 
341 0.0482 0.0482 0 0.000198634 0.000198634 -2.63953e-05 4.98363 1558.51 2172.2 
361 0.0502 0.0502 0 0.000236069 0.000236069 -4.73392e-07 5.38365 1758.3 2604.9 
381 0.0482 0.0482 0 0.000265651 0.000265651 4.12362e-06 4.99642 1685.06 2412.27 
401 0.0476 0.0476 0 0.000215575 0.000215575 -2.21015e-05 5.11929 1376.09 1926.88 
421 0.0482 0.0482 0 0.000208303 0.000208303 3.62322e-06 5.09835 1357.74 1842.04 
441 0.0464 0.0464 0 0.000176062 0.000176062 -2.39357e-05 4.8097 1401.98 1883.9 
461 0.0444 0.0444 0 0.000221736 0.000221736 3.51209e-05 4.5109 1703.41 2242.64 
481 0.048 0.048 0 0.000222865 0.000222865 -2.22463e-05 4.8333 1700.12 2110.64 
501 0.0438 0.0438 0 0.000179728 0.000179728 -1.91705e-05 4.64705 1376.65 1762.09 
521 0.0426 0.0426 0 0.000205921 0.000205921 6.21035e-06 4.57057 1373.18 1836.17 
541 0.04 0.04 0 0.000207658 0.000207658 2.30872e-05 4.36131 1480.4 1820.33 
561 0.0354 0.0354 0 0.000145386 0.000145386 3.05192e-06 3.52456 1236.28 1606.84 
581 0.0394 0.0394 0 0.000193594 0.000193594 -6.13185e-06 4.03025 1212.45 1651.62 
601 0.0324 0.0324 0 0.000159304 0.000159304 1.92922e-05 3.28981 1039.6 1405.39 
621 0.0338 0.0338 0 0.000179419 0.000179419 1.598e-05 3.60428 1138.88 1545.95 
641 0.0008 0.0008 0 -2.62625e-06 -2.62625e-06 1.4908e-06 0.939729 156.691 417.146 
661 0.0012 0.0012 0 -9.10537e-06 -9.10537e-06 6.45126e-07 0.0910537 6.95053 16.2765 
681 0.001 0.001 0 -6.92272e-06 -6.92272e-06 4.82726e-07 0.0692272 1.67699 22.4864 
701 0.0014 0.0014 0 -1.0848e-05 -1.0848e-05 4.48602e-06 0.10848 9.66571 3.67452 
721 0.0008 0.0008 0 -7.24968e-06 -7.24968e-06 -1.74972e-06 0.0724968 9.23043 14.1389 
741 0.0024 0.0024 0 -2.12428e-05 -2.12428e-05 1.65206e-06 0.212428 17.8719 41.319 
761 0.0012 0.0012 0 -9.76104e-06 -9.76104e-06 2.62026e-06 0.0976104 22.3147 25.7786 
781 0.0018 0.0018 0 -1.67502e-05 -1.67502e-05 -5.08866e-06 0.167502 27.7189 87.8394 
801 0.0012 0.0012 0 -1.43458e-05 -1.43458e-05 -5.21722e-07 0.143458 -2.72493 5.69069 
821 0.0022 0.0022 0 -2.0432e-05 -2.0432e-05 4.05432e-06 0.20432 15.3261 30.4582 
841 0.0012 0.0012 0 -9.02254e-06 -9.02254e-06 2.05468e-06 0.0902254 22.1406 24.6512 
861 0.0026 0.0026 0 -2.31661e-05 -2.31661e-05 3.97636e-06 0.231661 12.4115 47.3893 
881 0.002 0.002 0 -1.87572e-05 -1.87572e-05 8.02587e-06 0.187572 38.7645 113.51 
901 0.0006 0.0006 0 -6.09532e-06 -6.09532e-06 -4.19749e-06 0.0609532 6.73405 6.34849 
921 0.0008 0.0008 0 -3.98995e-06 -3.98995e-06 -2.8823e-08 0.0398995 11.9216 20.8669 
941 0.001 0.001 0 -7.98848e-06 -7.98848e-06 2.42789e-06 0.0798848 20.4213 25.6167 
961 0 0 0 0 0 0 0 0 0 
981 0.0308 0.0308 0 0.000180048 0.000180048 -9.37061e-06 3.24889 1000.4 1275.81 
1001 0.0346 0.0346 0 0.000194616 0.000194616 -2.33852e-06 3.71086 1360.01 1838.43 
1021 0.04 0.04 0 0.000194082 0.000194082 2.956e-05 4.46761 1356.14 1719.18 
1041 0.041 0.041 0 0.000158686 0.000158686 -2.85648e-06 4.20921 1134.51 1440.65 
1061 0.0516 0.0516 0 0.0002084 0.0002084 -2.31846e-05 5.69945 1508.85 2078.68 
1081 0.0444 0.0444 0 0.00017895 0.00017895 1.1526e-05 4.63659 1112.59 1825.05 
1101 0.0464 0.0464 0 0.000165005 0.000165005 6.99908e-06 4.70823 1331.08 1803.29 
1121 0.0428 0.0428 0 0.000153169 0.000153169 1.0793e-05 4.49764 1371.24 1811.17 
1141 0.0482 0.0482 0 0.000204879 0.000204879 1.89019e-05 5.13231 1420.21 1899.81 
1161 0.0472 0.0472 0 0.000190005 0.000190005 2.05798e-05 4.95687 1349.82 1846.71 
1181 0.045 0.045 0 0.0001726 0.0001726 1.5864e-05 4.7902 1363.28 1869.47 
1201 0.0476 0.0476 0 0.000253941 0.000253941 9.17399e-06 4.98749 1921.81 2679.7 
1221 0.0508 0.0508 0 0.000262719 0.000262719 2.40763e-05 5.28354 1875.57 2515.36 
1241 0.0494 0.0494 0 0.000216174 0.000216174 3.96995e-05 4.90279 1722.81 2464.96 
1261 0.0492 0.0492 0 0.000219246 0.000219246 1.5149e-05 5.08638 1422.15 2142.2 
2 0.0064 0.0064 0 6.85015e-05 6.85015e-05 1.30803e-05 7.33799 3571.04 4537.51 
22 0.342 0.342 0 0.00403866 0.00403866 -4.40324e-05 40.3866 10122.1 14033.7 
42 0.3654 0.3654 0 0.00401329 0.00401329 -5.47074e-05 40.1329 8865.86 12356.2 
62 0.3872 0.3872 0 0.00417398 0.00417398 5.85326e-05 41.7398 7242.43 10832.5 
82 0.3912 0.3912 0 0.00416579 0.00416579 -4.34924e-06 41.6579 7700.58 10703.1 
102 0.397 0.397 0 0.00422721 0.00422721 -7.08807e-05 42.2721 7091.32 10106.6 
122 0.4372 0.4372 0 0.0046708 0.0046708 2.61859e-05 46.708 8061.45 10959.9 
142 0.4222 0.4222 0 0.00449691 0.00449691 -2.03565e-05 44.9691 7006.77 10130.9 
162 0.4316 0.4316 0 0.00453483 0.00453483 1.53887e-05 45.3483 7238.22 9767.26 
182 0.412 0.412 0 0.00435744 0.00435744 6.2583e-05 43.5744 7361.25 11024.8 
202 0.4344 0.4344 0 0.00454111 0.00454111 -8.23652e-06 45.4111 7678.93 11177.4 
222 0.4144 0.4144 0 0.00439205 0.00439205 -4.76042e-05 43.9205 7769.26 10997.8 
242 0.4054 0.4054 0 0.00427509 0.00427509 -1.37465e-05 42.7509 7434.25 10295.5 
262 0.4092 0.4092 0 0.004322 0.004322 -9.38029e-05 43.22 7444.84 10960 
282 0.394 0.394 0 0.00431653 0.00431653 -6.51375e-05 43.1653 8858.51 12200.8 
302 0.3414 0.3414 0 0.00393491 0.00393491 -0.00016189 39.3491 8895.83 12062.6 
322 0.018 0.018 0 0.000223597 0.000223597 1.60159e-06 22.2395 5884.19 7838.29 
342 0.053 0.053 0 0.000236154 0.000236154 2.38803e-05 5.43797 1722.26 2500.49 
362 0.0488 0.0488 0 0.00021822 0.00021822 -8.73098e-06 5.16335 1793.38 2543.71 
382 0.0466 0.0466 0 0.000237242 0.000237242 -4.31793e-05 4.9575 1420.45 1767.3 
402 0.0488 0.0488 0 0.000207911 0.000207911 1.00363e-05 5.10354 1367.43 2086.59 
422 0.0492 0.0492 0 0.000208269 0.000208269 -3.08421e-05 5.13863 1560.08 2156.12 
442 0.0474 0.0474 0 0.000174684 0.000174684 9.15657e-06 5.24319 1533.97 2051.16 
462 0.0452 0.0452 0 0.00021008 0.00021008 -1.76096e-05 4.68498 1389.23 1961.01 
482 0.0458 0.0458 0 0.000179046 0.000179046 2.81599e-06 4.67707 1090.03 1490.13 
502 0.0434 0.0434 0 0.000178298 0.000178298 1.10047e-05 4.48542 1414.44 1806.12 
522 0.0456 0.0456 0 0.000197693 0.000197693 -5.85431e-06 4.713 1508.39 1937.34 
542 0.0456 0.0456 0 0.000235403 0.000235403 9.38861e-06 4.79053 1463.8 1945.6 
562 0.0426 0.0426 0 0.000177123 0.000177123 3.17976e-05 4.47586 1438.69 1977.21 
582 0.0388 0.0388 0 0.000207499 0.000207499 1.26406e-05 4.24734 1487.52 1825.87 
602 0.0342 0.0342 0 0.000178129 0.000178129 1.47662e-05 3.64229 1080.22 1431.19 
622 0.035 0.035 0 0.000195557 0.000195557 1.66322e-05 3.76416 1428.42 1645.8 
642 0.0008 0.0008 0 -2.18314e-06 -2.18314e-06 -1.78134e-06 0.784301 42.5212 46.4842 
662 0.0008 0.0008 0 -8.02988e-06 -8.02988e-06 -1.80862e-06 0.0802988 15.0341 27.4984 
682 0.0022 0.0022 0 -1.99378e-05 -1.99378e-05 3.44907e-06 0.199378 28.0586 53.7194 
702 0.0018 0.0018 0 -1.77691e-05 -1.77691e-05 -1.34171e-06 0.177691 30.2759 71.7017 
722 0.0014 0.0014 0 -1.35378e-05 -1.35378e-05 -1.47125e-06 0.135378 4.15518 29.9649 
742 0.0018 0.0018 0 -1.53018e-05 -1.53018e-05 -2.16892e-06 0.153018 18.4052 30.4893 
762 0.0012 0.0012 0 -1.06537e-05 -1.06537e-05 1.87792e-06 0.106537 -9.53795 -1.86696 
782 0.0012 0.0012 0 -1.13759e-05 -1.13759e-05 -5.03385e-06 0.113759 3.39395 13.5914 
802 0.001 0.001 0 -1.31494e-05 -1.31494e-05 3.88901e-07 0.131494 21.8113 38.2894 
822 0.0014 0.0014 0 -1.28841e-05 -1.28841e-05 -1.20757e-06 0.128841 -3.44341 24.0027 
842 0.0018 0.0018 0 -1.76954e-05 -1.76954e-05 -7.17777e-06 0.176954 10.4325 2.48283 
862 0.0014 0.0014 0 -1.3094e-05 -1.3094e-05 1.63418e-06 0.13094 21.4904 38.6609 
882 0.0012 0.0012 0 -9.3307e-06 -9.3307e-06 2.36916e-07 0.093307 4.94631 27.5655 
902 0.0012 0.0012 0 -7.23655e-06 -7.23655e-06 3.02658e-06 0.0723655 14.7635 33.7948 
922 0.0022 0.0022 0 -2.06223e-05 -2.06223e-05 -3.25575e-07 0.206223 -4.59983 14.0815 
942 0.0014 0.0014 0 -1.15562e-05 -1.15562e-05 -2.35999e-06 0.115562 4.86501 16.8581 
962 0.0008 0.0008 0 -7.35073e-07 -7.35073e-07 -1.29312e-06 0.364345 213.37 233.261 
982 0.0332 0.0332 0 0.000191612 0.000191612 5.86716e-08 3.56957 1192.43 1506.01 
1002 0.0346 0.0346 0 0.000222969 0.000222969 -1.85197e-05 3.71593 1198.05 1618.3 
1022 0.0438 0.0438 0 0.000237701 0.000237701 2.23164e-05 4.92554 1746.62 2189.05 
1042 0.0418 0.0418 0 0.000188584 0.000188584 1.81023e-06 4.47461 1358.17 1786.28 
1062 0.0434 0.0434 0 0.000191015 0.000191015 -1.02251e-05 4.49259 1238.59 1812.27 
1082 0.044 0.044 0 0.000187548 0.000187548 -1.52399e-06 4.65292 1433.75 1920.99 
1102 0.0436 0.0436 0 0.000229377 0.000229377 -8.0578e-06 4.56556 1703.89 2107.48 
1122 0.0466 0.0466 0 0.000211691 0.000211691 1.2654e-05 5.01275 1445.89 1734.13 
1142 0.0436 0.0436 0 0.000186016 0.000186016 -2.75065e-05 4.47384 1256.06 1850.81 
1162 0.047 0.047 0 0.000193774 0.000193774 -1.81385e-05 4.7451 1378.77 1732.29 
1182 0.0436 0.0436 0 0.000185464 0.000185464 -5.68263e-06 4.56881 1277.52 1659.87 
1202 0.0468 0.0468 0 0.000181805 0.000181805 2.28262e-05 5.09772 1538.58 2175.41 
1222 0.049 0.049 0 0.000258946 0.000258946 8.17837e-06 5.11208 1838.61 2460.98 
1242 0.057 0.057 0 0.000279031 0.000279031 1.44236e-05 5.9192 2032.48 2661.54 
1262 0.0504 0.0504 0 0.000185704 0.000185704 2.87056e-05 5.18338 1468.15 2134.58 
3 0.0108 0.0108 0 7.98653e-05 7.98653e-05 1.0349e-05 11.7149 3582.13 5619.5 
23 0.3462 0.3462 0 0.00405265 0.00405265 -1.59416e-05 40.5265 10965.7 15056.1 
43 0.3668 0.3668 0 0.00408566 0.00408566 -2.16396e-05 40.8566 8485.6 11986.9 
63 0.41 0.41 0 0.00444984 0.00444984 -3.35916e-05 44.4984 8659.89 12114.3 
83 0.4136 0.4136 0 0.00438422 0.00438422 -2.03679e-05 43.8422 7650.28 11236.5 
103 0.4232 0.4232 0 0.00448292 0.00448292 -1.97629e-05 44.8292 7711.6 10903.6 
123 0.4032 0.4032 0 0.00423527 0.00423527 -4.22315e-05 42.3527 6779.05 9653.48 
143 0.396 0.396 0 0.00417622 0.00417622 7.6224e-06 41.7622 7368.36 9966.38 
163 0.4248 0.4248 0 0.0044126 0.0044126 2.69514e-05 44.126 6944.55 10009.3 
183 0.4262 0.4262 0 0.00447702 0.00447702 3.40631e-05 44.7702 7531.04 10595.7 
203 0.4048 0.4048 0 0.00430343 0.00430343 -9.29734e-06 43.0343 7339.6 10662.2 
223 0.416 0.416 0 0.00446059 0.00446059 1.82053e-05 44.6059 7881.06 11150.3 
243 0.414 0.414 0 0.00446715 0.00446715 -2.4507e-05 44.6715 7975.74 10937.9 
263 0.4 0.4 0 0.00424487 0.00424487 -1.74813e-05 42.4487 8049.03 11410.9 
283 0.3834 0.3834 0 0.00414299 0.00414299 6.92906e-05 41.4299 8140.27 11055.8 
303 0.3434 0.3434 0 0.00390817 0.00390817 -5.67936e-06 39.0817 9054.21 12505.9 
323 0.0208 0.0208 0 0.000245916 0.000245916 -1.11628e-05 24.3371 5975.48 8382.45 
343 0.051 0.051 0 0.000257821 0.000257821 -7.9104e-06 5.24131 1840.01 2541.18 
363 0.0442 0.0442 0 0.000206753 0.000206753 -1.9193e-05 4.43271 1676.66 2216.94 
383 0.045 0.045 0 0.00017244 0.00017244 -8.97365e-06 4.7835 1230.6 1660.31 
403 0.048 0.048 0 0.000206891 0.000206891 8.9688e-06 4.96457 1696.67 2441.03 
423 0.0468 0.0468 0 0.000206406 0.000206406 -1.53752e-05 5.0036 1286.99 1836.57 
443 0.0498 0.0498 0 0.000236627 0.000236627 -6.08347e-06 5.31569 1669.6 2211.46 
463 0.0444 0.0444 0 0.000170475 0.000170475 -5.50326e-06 4.81736 1482.74 1918.58 
483 0.0448 0.0448 0 0.000198309 0.000198309 1.07765e-05 4.62243 1211.62 1749.45 
503 0.0474 0.0474 0 0.000204862 0.000204862 -2.6643e-06 4.83882 1430.28 1869.04 
523 0.0416 0.0416 0 0.000188911 0.000188911 -1.18037e-06 4.38072 1239.54 1710.35 
543 0.0386 0.0386 0 0.000170508 0.000170508 1.07336e-05 4.13248 1252.07 1661.3 
563 0.039 0.039 0 0.000194375 0.000194375 2.56727e-05 4.16823 1494.93 1943.68 
583 0.0418 0.0418 0 0.000190731 0.000190731 1.40632e-05 4.27369 1340.61 1816.23 
603 0.0344 0.0344 0 0.000180745 0.000180745 9.42217e-06 3.64922 1118.61 1459.25 
623 0.038 0.038 0 0.000215466 0.000215466 7.63428e-06 3.91158 1590.49 1950.01 
643 0.0002 0.0002 0 -6.61574e-07 -6.61574e-07 -1.35749e-07 0.130171 -4.79056 48.4714 
663 0.0012 0.0012 0 -1.19408e-05 -1.19408e-05 5.48638e-06 0.119408 14.0085 44.6016 
683 0.001 0.001 0 -5.555e-06 -5.555e-06 4.15492e-06 0.05555 -12.7288 -14.5549 
703 0.0012 0.0012 0 -1.18573e-05 -1.18573e-05 4.08448e-06 0.118573 28.6827 28.7303 
723 0.0012 0.0012 0 -8.94967e-06 -8.94967e-06 2.55245e-06 0.0894967 23.7297 30.9626 
743 0.0016 0.0016 0 -1.35859e-05 -1.35859e-05 3.01894e-06 0.135859 15.97 28.2869 
763 0.0012 0.0012 0 -8.58085e-06 -8.58085e-06 -3.38879e-07 0.0858085 14.0944 25.6217 
783 0.0016 0.0016 0 -1.52409e-05 -1.52409e-05 -6.24512e-07 0.152409 1.37451 21.7914 
803 0.0014 0.0014 0 -1.24718e-05 -1.24718e-05 -4.30664e-07 0.124718 20.8029 40.6448 
823 0.0006 0.0006 0 -4.3679e-06 -4.3679e-06 -8.98372e-07 0.043679 0.405358 -1.55986 
843 0.0018 0.0018 0 -1.90538e-05 -1.90538e-05 -8.30552e-07 0.190538 19.0335 79.4076 
863 0.0012 0.0012 0 -7.74051e-06 -7.74051e-06 3.22536e-06 0.0774051 37.6999 59.4459 
883 0.0022 0.0022 0 -1.78817e-05 -1.78817e-05 -1.90479e-06 0.178817 66.3517 97.2641 
903 0.0018 0.0018 0 -1.37825e-05 -1.37825e-05 9.1267e-07 0.137825 10.3703 27.4711 
923 0.0012 0.0012 0 -1.43345e-05 -1.43345e-05 -4.21983e-06 0.143345 13.9735 27.7298 
943 0.0012 0.0012 0 -1.08134e-05 -1.08134e-05 3.57443e-06 0.108134 44.9462 86.436 
963 0.0012 0.0012 0 -2.21834e-06 -2.21834e-06 4.95709e-06 1.2241 477.999 587.481 
983 0.0302 0.0302 0 0.000186123 0.000186123 3.97533e-06 3.20313 1084.86 1477.14 
1003 0.0368 0.0368 0 0.000171621 0.000171621 2.62871e-05 4.045 1223.04 1638.85 
1023 0.04 0.04 0 0.000224096 0.000224096 -2.52812e-05 4.27579 1565.48 1998.82 
1043 0.0358 0.0358 0 0.00014855 0.00014855 -9.64885e-06 3.74961 980.989 1267.01 
1063 0.0432 0.0432 0 0.0001683 0.0001683 8.0991e-07 4.48446 1368.24 1776.55 
1083 0.0408 0.0408 0 0.000168634 0.000168634 -1.75609e-06 4.39234 1344.22 1720.52 
1103 0.0446 0.0446 0 0.000189073 0.000189073 -7.14472e-06 4.8223 1237.36 1640.69 
1123 0.0458 0.0458 0 0.000189877 0.000189877 -2.58686e-06 4.72946 1490.11 1951.66 
1143 0.0442 0.0442 0 0.000184057 0.000184057 5.97059e-07 4.45888 1277.88 1873.99 
1163 0.0428 0.0428 0 0.000190971 0.000190971 4.6428e-06 4.44761 1484.27 1900.17 
1183 0.0492 0.0492 0 0.000240846 0.000240846 1.54749e-05 5.16896 1725.85 2407 
1203 0.0456 0.0456 0 0.000200193 0.000200193 -1.55076e-05 4.78662 1585.65 2429.43 
1223 0.0454 0.0454 0 0.000201307 0.000201307 -1.5975e-05 4.95245 1656.99 2461.63 
1243 0.0462 0.0462 0 0.000235599 0.000235599 2.54543e-05 4.56498 1685.48 2365.87 
1263 0.0464 0.0464 0 0.000234767 0.000234767 2.42115e-05 4.7397 1719.03 2376.82 
4 0.0094 0.0094 0 8.58973e-05 8.58973e-05 -1.56125e-05 10.406 3670.04 4551.7 
24 0.349 0.349 0 0.00404653 0.00404653 -4.4536e-05 40.4653 10177 13598.5 
44 0.374 0.374 0 0.00415337 0.00415337 -7.01356e-05 41.5337 8709.5 12052.4 
64 0.3856 0.3856 0 0.00416063 0.00416063 -1.79376e-05 41.6063 7588.06 10556.8 
84 0.4178 0.4178 0 0.00447732 0.00447732 -2.84886e-05 44.7732 7976.18 11008.3 
104 0.4226 0.4226 0 0.00447946 0.00447946 2.12601e-05 44.7946 7561.81 10622.7 
124 0.413 0.413 0 0.00433664 0.00433664 2.08902e-05 43.3664 7358.96 10067.3 
144 0.4128 0.4128 0 0.00432005 0.00432005 -1.35073e-05 43.2005 7520.91 10408.9 
164 0.428 0.428 0 0.00443122 0.00443122 4.65538e-05 44.3122 7254.16 10570.9 
184 0.4192 0.4192 0 0.0044049 0.0044049 -6.98514e-05 44.049 7225.16 10301.6 
204 0.4122 0.4122 0 0.00439938 0.00439938 6.48565e-06 43.9938 7867.83 10761.3 
224 0.431 0.431 0 0.00449704 0.00449704 -1.63794e-05 44.9704 8003.14 11387.2 
244 0.4158 0.4158 0 0.00442477 0.00442477 -3.8131e-05 44.2477 7506.32 10541.4 
264 0.3986 0.3986 0 0.00430829 0.00430829 -2.42668e-06 43.0829 8256.39 11501.8 
284 0.3846 0.3846 0 0.00411188 0.00411188 6.40251e-05 41.1188 8647.83 11779.6 
304 0.3466 0.3466 0 0.00388595 0.00388595 -0.000132324 38.8595 9471.88 12779.9 
324 0.0192 0.0192 0 0.000221919 0.000221919 -4.32948e-06 23.1018 6879.4 9782.74 
344 0.0432 0.0432 0 0.000201488 0.000201488 4.51368e-06 4.4375 1402.66 2166.86 
364 0.0482 0.0482 0 0.000192521 0.000192521 1.74447e-05 4.98246 1372.41 2214 
384 0.045 0.045 0 0.000175635 0.000175635 -3.15287e-05 4.53051 1444.6 2031.14 
404 0.0518 0.0518 0 0.000225067 0.000225067 -1.39904e-05 5.49534 1761.15 2448.72 
424 0.051 0.051 0 0.00021572 0.00021572 -4.46836e-07 5.22836 1571.89 2164.59 
444 0.0466 0.0466 0 0.000199562 0.000199562 -8.00374e-07 4.96594 1610.86 2350.04 
464 0.047 0.047 0 0.000192035 0.000192035 -2.11893e-05 4.89807 1435.47 2019.8 
484 0.047 0.047 0 0.000227291 0.000227291 -8.47688e-06 4.81694 1486.58 2054.64 
504 0.045 0.045 0 0.00020962 0.00020962 2.66524e-05 5.00826 1603.95 2224.8 
524 0.0428 0.0428 0 0.00015899 0.00015899 -9.29751e-07 4.50636 1013.1 1406.25 
544 0.0404 0.0404 0 0.000162512 0.000162512 -1.94048e-05 4.3077 1032.81 1416.66 
564 0.041 0.041 0 0.00019517 0.00019517 -2.31618e-05 4.59335 1302.39 1779.54 
584 0.0436 0.0436 0 0.000206403 0.000206403 1.83423e-05 4.30276 1247.63 1638.72 
604 0.036 0.036 0 0.000149109 0.000149109 -1.9289e-05 3.93077 902.818 1153.78 
624 0.0288 0.0288 0 0.000156694 0.000156694 2.94828e-06 3.08901 873.003 1079.69 
644 0.0006 0.0006 0 -6.59564e-07 -6.59564e-07 -1.24193e-07 0.543256 212.32 341.985 
664 0.001 0.001 0 -7.94223e-06 -7.94223e-06 -3.68652e-06 0.0794223 9.4646 12.9199 
684 0.0022 0.0022 0 -2.40691e-05 -2.40691e-05 -1.88656e-06 0.240691 33.523 53.1389 
704 0.0018 0.0018 0 -1.28772e-05 -1.28772e-05 -2.13429e-06 0.128772 6.99425 15.2286 
724 0.0022 0.0022 0 -1.97369e-05 -1.97369e-05 -1.68697e-06 0.197369 32.545 42.2241 
744 0.002 0.002 0 -2.00301e-05 -2.00301e-05 -1.40941e-06 0.200301 36.3588 68.3174 
764 0.0028 0.0028 0 -2.53974e-05 -2.53974e-05 -5.57895e-06 0.253974 6.56412 -0.718371 
784 0.001 0.001 0 -9.51448e-06 -9.51448e-06 -5.79175e-07 0.0951448 27.2686 43.4009 
804 0.0016 0.0016 0 -1.37196e-05 -1.37196e-05 -1.90056e-06 0.137196 38.0465 69.0809 
824 0.0014 0.0014 0 -1.17576e-05 -1.17576e-05 7.08494e-07 0.117576 3.41454 9.88652 
844 0.0012 0.0012 0 -8.97496e-06 -8.97496e-06 3.73342e-06 0.0897496 23.301 30.3154 
864 0.002 0.002 0 -2.05224e-05 -2.05224e-05 -2.80872e-06 0.205224 20.2946 43.6512 
884 0.0014 0.0014 0 -1.16102e-05 -1.16102e-05 -6.88708e-06 0.116102 16.9827 8.69951 
904 0.001 0.001 0 -8.9234e-06 -8.9234e-06 -5.6454e-06 0.089234 9.82916 14.7986 
924 0.001 0.001 0 -9.54515e-06 -9.54515e-06 1.27066e-06 0.0954515 6.06666 28.8366 
944 0.0008 0.0008 0 -6.15009e-06 -6.15009e-06 8.47901e-07 0.0615009 3.2904 13.6085 
964 0.0016 0.0016 0 5.779e-07 5.779e-07 9.08342e-08 1.43878 464.957 814.313 
984 0.0324 0.0324 0 0.000156146 0.000156146 1.52487e-05 3.49121 1170.4 1506.93 
1004 0.0372 0.0372 0 0.000187372 0.000187372 -2.01484e-06 4.04454 1325.47 1599.54 
1024 0.0404 0.0404 0 0.00023155 0.00023155 -2.26054e-07 4.31174 1384.09 1806.22 
1044 0.0444 0.0444 0 0.000238512 0.000238512 -7.81777e-06 4.71695 1436.22 1870.85 
1064 0.0462 0.0462 0 0.000157621 0.000157621 -3.26818e-05 4.7524 1198.35 1608.69 
1084 0.0448 0.0448 0 0.000189898 0.000189898 2.22777e-05 4.85112 1382.78 1958.15 
1104 0.0434 0.0434 0 0.000187269 0.000187269 -1.75405e-05 4.32331 1578.31 2099.5 
1124 0.045 0.045 0 0.000230018 0.000230018 -3.05834e-06 4.64685 1558.02 2096.33 
1144 0.039 0.039 0 0.000149372 0.000149372 3.00448e-07 4.15455 1113.2 1560.68 
1164 0.0478 0.0478 0 0.000176892 0.000176892 1.91731e-06 4.90717 1579.23 2107.38 
1184 0.0458 0.0458 0 0.00023738 0.00023738 7.38674e-06 4.89106 1756.3 2233.56 
1204 0.0486 0.0486 0 0.000227652 0.000227652 -1.97912e-05 5.08293 1614.48 2102.51 
1224 0.0494 0.0494 0 0.000228942 0.000228942 1.9017e-05 5.05705 1730.44 2314.14 
1244 0.0506 0.0506 0 0.000264935 0.000264935 1.51166e-05 4.97977 1826.15 2547.14 
1264 0.0474 0.0474 0 0.000208751 0.000208751 1.66333e-05 4.89686 1486.44 2107.64 
5 0.01 0.01 0 9.32886e-05 9.32886e-05 3.8312e-06 11.2275 4267.03 5221.54 
25 0.3392 0.3392 0 0.00392495 0.00392495 -1.34606e-05 39.2495 9181.16 12713.5 
45 0.3708 0.3708 0 0.00408971 0.00408971 6.69831e-05 40.8971 9472.9 12809.9 
65 0.402 0.402 0 0.0044302 0.0044302 8.54139e-05 44.302 8298.69 11349.5 
85 0.4002 0.4002 0 0.00425672 0.00425672 -2.46578e-05 42.5672 8202.63 11422.5 
105 0.4174 0.4174 0 0.00450152 0.00450152 2.03856e-05 45.0152 8109.01 11080 
125 0.4282 0.4282 0 0.00440471 0.00440471 4.81514e-05 44.0471 7022.87 9946.97 
145 0.416 0.416 0 0.00441418 0.00441418 4.10863e-05 44.1418 7685.13 10658.9 
165 0.4122 0.4122 0 0.00434848 0.00434848 -2.5997e-05 43.4848 7306.3 10382.2 
185 0.4378 0.4378 0 0.00460203 0.00460203 7.8268e-05 46.0203 7756.55 10880.3 
205 0.4296 0.4296 0 0.00457174 0.00457174 5.86303e-05 45.7174 7609.75 10614 
225 0.4256 0.4256 0 0.00450701 0.00450701 -0.000129987 45.0701 7502.09 10953.4 
245 0.394 0.394 0 0.00413418 0.00413418 -1.69877e-05 41.3418 7262.9 10196.2 
265 0.3928 0.3928 0 0.00415818 0.00415818 2.00919e-05 41.5818 7567.6 10343.1 
285 0.3762 0.3762 0 0.00408868 0.00408868 5.24959e-05 40.8868 8240.83 11440.9 
305 0.3504 0.3504 0 0.00401892 0.00401892 2.27391e-05 40.1892 9490.27 12939.6 
325 0.0144 0.0144 0 0.00016008 0.00016008 6.1776e-06 16.8222 5069.14 7017.22 
345 0.052 0.052 0 0.000242439 0.000242439 3.25144e-05 5.09539 1708.29 2446.16 
365 0.0462 0.0462 0 0.000252631 0.000252631 -2.13593e-06 4.79136 1793.55 2372.66 
385 0.048 0.048 0 0.000231402 0.000231402 -2.84678e-05 5.23411 1947.15 2627.84 
405 0.0468 0.0468 0 0.000224615 0.000224615 -1.26425e-05 4.74646 1512.01 2051.3 
425 0.0438 0.0438 0 0.00016887 0.00016887 1.53758e-06 4.80296 1323.07 1760.1 
445 0.0514 0.0514 0 0.00023978 0.00023978 -2.92233e-05 5.32237 1812.54 2365.86 
465 0.0486 0.0486 0 0.000205538 0.000205538 1.65915e-05 5.26826 1642.18 2197.52 
485 0.0428 0.0428 0 0.000215041 0.000215041 -1.22745e-05 4.39088 1558.6 2029.36 
505 0.044 0.044 0 0.000195069 0.000195069 1.40368e-05 4.77604 1675.33 2131.38 
525 0.0464 0.0464 0 0.000205578 0.000205578 2.25123e-05 4.804 1201.81 1739.25 
545 0.0414 0.0414 0 0.000197301 0.000197301 1.73996e-05 4.10663 1216.03 1542.48 
565 0.0432 0.0432 0 0.000195807 0.000195807 -3.60263e-05 4.35375 1300.56 1882.24 
585 0.0364 0.0364 0 0.000149508 0.000149508 2.0101e-05 3.87516 1028.58 1377.59 
605 0.038 0.038 0 0.000210943 0.000210943 -1.00352e-05 4.02691 1419.64 1933.66 
625 0.0388 0.0388 0 0.000210666 0.000210666 -1.00799e-05 4.09532 1340 1796.74 
645 0.0006 0.0006 0 4.45194e-07 4.45194e-07 -3.43318e-06 0.335339 198.37 177.377 
665 0.0004 0.0004 0 -3.58326e-06 -3.58326e-06 -9.10264e-07 0.0358326 9.31344 10.7236 
685 0.0024 0.0024 0 -1.83031e-05 -1.83031e-05 -2.75606e-06 0.183031 24.2145 78.8192 
705 0.0018 0.0018 0 -1.44887e-05 -1.44887e-05 3.28279e-06 0.144887 10.7721 13.1674 
725 0.0018 0.0018 0 -1.52242e-05 -1.52242e-05 -1.24496e-06 0.152242 49.0913 72.3419 
745 0.0016 0.0016 0 -1.22959e-05 -1.22959e-05 -7.52093e-06 0.122959 11.0892 14.3955 
765 0.0026 0.0026 0 -1.77782e-05 -1.77782e-05 3.3944e-06 0.177782 31.7231 71.872 
785 0.0028 0.0028 0 -2.52159e-05 -2.52159e-05 -1.30673e-06 0.252159 20.3195 46.2555 
805 0.0012 0.0012 0 -8.24341e-06 -8.24341e-06 -3.35728e-06 0.0824341 2.33472 0.474814 
825 0.0016 0.0016 0 -1.44389e-05 -1.44389e-05 -1.07035e-06 0.144389 2.87481 17.0578 
845 0.0014 0.0014 0 -1.41225e-05 -1.41225e-05 3.98627e-06 0.141225 24.4319 51.9558 
865 0.001 0.001 0 -8.19112e-06 -8.19112e-06 -5.43178e-06 0.0819112 26.2089 44.0141 
885 0.0024 0.0024 0 -1.89527e-05 -1.89527e-05 2.17927e-06 0.189527 15.1773 39.7045 
905 0.001 0.001 0 -9.65798e-06 -9.65798e-06 -4.81584e-07 0.0965798 15.7701 12.6737 
925 0.0012 0.0012 0 -9.88332e-06 -9.88332e-06 -1.44547e-06 0.0988332 -4.50428 15.6253 
945 0.0006 0.0006 0 -3.73829e-06 -3.73829e-06 9.06142e-07 0.0373829 0.659188 13.4895 
965 0.001 0.001 0 -1.48958e-06 -1.48958e-06 3.8824e-06 0.979494 293.163 380.109 
985 0.032 0.032 0 0.000187567 0.000187567 3.23398e-06 3.58025 1189.99 1559.74 
1005 0.035 0.035 0 0.000196976 0.000196976 1.82971e-05 3.93675 1254.64 1556.5 
1025 0.0388 0.0388 0 0.000171399 0.000171399 -3.66737e-05 4.17875 1194.14 1623.21 
1045 0.0438 0.0438 0 0.000206169 0.000206169 -2.20679e-06 4.80213 1380.87 1948.23 
1065 0.0478 0.0478 0 0.000180181 0.000180181 -1.75651e-05 4.8667 1295.93 1718.01 
1085 0.0458 0.0458 0 0.000199374 0.000199374 1.0497e-05 4.94961 1436.45 1816.05 
1105 0.0436 0.0436 0 0.000169206 0.000169206 3.78361e-05 4.56944 1221.08 1613.98 
1125 0.0446 0.0446 0 0.000170746 0.000170746 -1.33016e-05 4.80007 1346.65 1852.82 
1145 0.0456 0.0456 0 0.000201823 0.000201823 1.81469e-05 4.89518 1668.94 2191.25 
1165 0.0538 0.0538 0 0.000257982 0.000257982 -3.15104e-05 5.76748 1634.36 2121.02 
1185 0.048 0.048 0 0.000188742 0.000188742 1.51256e-05 5.00452 1217.68 1711.14 
1205 0.0494 0.0494 0 0.00020169 0.00020169 1.36735e-05 4.91968 1619.11 2223.34 
1225 0.046 0.046 0 0.000212468 0.000212468 -5.26978e-06 4.89784 1426.55 2058.2 
1245 0.0476 0.0476 0 0.000223784 0.000223784 8.58862e-07 4.89003 1398.75 1898.24 
1265 0.049 0.049 0 0.000217458 0.000217458 -3.9001e-06 5.11089 1564.99 2257.77 
6 0.0132 0.0132 0 0.000134407 0.000134407 -9.93222e-06 14.7488 5883.21 8438.72 
26 0.3442 0.3442 0 0.00405816 0.00405816 -5.20929e-06 40.5816 9803.84 13440.3 
46 0.3782 0.3782 0 0.00415899 0.00415899 2.18807e-05 41.5899 8520.41 11962.8 
66 0.4054 0.4054 0 0.00438949 0.00438949 -1.50121e-05 43.8949 8036.43 11555.3 
86 0.429 0.429 0 0.00456117 0.00456117 4.96119e-06 45.6117 8443.15 12077.6 
106 0.4152 0.4152 0 0.00437118 0.00437118 -2.45744e-05 43.7118 7235.6 10031.9 
126 0.4292 0.4292 0 0.00452137 0.00452137 -1.10909e-05 45.2137 7475.11 10537.1 
146 0.4256 0.4256 0 0.00450981 0.00450981 3.59276e-05 45.0981 7989.34 11065.5 
166 0.412 0.412 0 0.00430927 0.00430927 3.18476e-05 43.0927 7091.25 10113.7 
186 0.4156 0.4156 0 0.00435572 0.00435572 -4.94391e-05 43.5572 6874.98 9703.14 
206 0.4086 0.4086 0 0.00427357 0.00427357 9.49929e-05 42.7357 6989.87 10032.7 
226 0.4216 0.4216 0 0.00450101 0.00450101 -3.37258e-05 45.0101 7751.84 10748.9 
246 0.4194 0.4194 0 0.00448725 0.00448725 3.40861e-05 44.8725 8254.11 11614.2 
266 0.3952 0.3952 0 0.00426928 0.00426928 -6.08204e-05 42.6928 7812.78 10822.7 
286 0.3834 0.3834 0 0.00424198 0.00424198 6.33539e-05 42.4198 9038.16 12643.5 
306 0.347 0.347 0 0.00403342 0.00403342 9.49804e-05 40.3342 9658.9 12952.4 
326 0.0148 0.0148 0 0.000150541 0.000150541 1.74452e-05 16.9445 5186.13 7024.21 
346 0.0538 0.0538 0 0.000192814 0.000192814 2.96928e-06 5.32325 1247.5 2115.13 
366 0.0484 0.0484 0 0.000208391 0.000208391 4.95861e-06 4.97902 1286.86 1804.16 
386 0.0462 0.0462 0 0.00021526 0.00021526 7.27535e-06 4.72697 1525.04 2141.79 
406 0.0448 0.0448 0 0.000181517 0.000181517 2.19597e-05 4.76535 1242.1 1909.36 
426 0.0464 0.0464 0 0.000208251 0.000208251 1.71102e-06 4.76301 1551.26 2210.87 
446 0.0464 0.0464 0 0.000214964 0.000214964 2.30888e-05 5.00543 1503.62 1930.99 
466 0.0414 0.0414 0 0.000173273 0.000173273 2.7038e-06 4.38848 1213.38 1638.13 
486 0.0402 0.0402 0 0.00019137 0.00019137 2.41307e-05 4.64914 1194.87 1606.61 
506 0.0474 0.0474 0 0.000193554 0.000193554 1.17261e-05 5.05003 1502.4 1957.14 
526 0.0468 0.0468 0 0.000193574 0.000193574 3.08095e-05 4.70459 1342.34 1794.41 
546 0.0462 0.0462 0 0.000219338 0.000219338 -4.578e-06 4.75998 1515 2090.86 
566 0.0372 0.0372 0 0.000192609 0.000192609 1.08321e-05 4.02514 1305.79 1693.29 
586 0.037 0.037 0 0.000187378 0.000187378 2.5699e-05 3.86346 1264.08 1582.6 
606 0.0342 0.0342 0 0.000214703 0.000214703 -1.13985e-05 3.53814 1259.53 1598.73 
626 0.0352 0.0352 0 0.000202434 0.000202434 -6.59282e-06 3.8913 1317.09 1645.95 
646 0.0008 0.0008 0 -1.14637e-06 -1.14637e-06 3.18951e-06 0.389089 235.125 190.805 
666 0.0016 0.0016 0 -1.31788e-05 -1.31788e-05 -1.10179e-06 0.131788 13.6025 44.726 
686 0.0014 0.0014 0 -1.22302e-05 -1.22302e-05 1.57697e-06 0.122302 5.69762 22.8234 
706 0.0008 0.0008 0 -8.28046e-06 -8.28046e-06 -2.28394e-07 0.0828046 6.45584 21.9114 
726 0.0008 0.0008 0 -6.21977e-06 -6.21977e-06 2.18377e-06 0.0621977 2.77359 17.1321 
746 0.001 0.001 0 -9.79076e-06 -9.79076e-06 2.15459e-06 0.0979076 9.15279 31.6557 
766 0.0006 0.0006 0 -6.12253e-06 -6.12253e-06 2.4369e-06 0.0612253 -3.1755 5.9918 
786 0.0014 0.0014 0 -1.16263e-05 -1.16263e-05 4.28232e-06 0.116263 9.22768 33.9928 
806 0.0018 0.0018 0 -1.53838e-05 -1.53838e-05 2.03289e-06 0.153838 2.60059 5.16945 
826 0.0024 0.0024 0 -1.90534e-05 -1.90534e-05 7.31874e-08 0.190534 19.7189 32.1574 
846 0.0018 0.0018 0 -1.56707e-05 -1.56707e-05 2.33271e-06 0.156707 1.55408 35.7696 
866 0.0014 0.0014 0 -1.21724e-05 -1.21724e-05 -1.57477e-06 0.121724 30.571 33.2936 
886 0.0016 0.0016 0 -1.29879e-05 -1.29879e-05 -4.61984e-06 0.129879 16.0958 25.1227 
906 0.0018 0.0018 0 -1.48048e-05 -1.48048e-05 1.57561e-06 0.148048 24.1278 50.3882 
926 0.0012 0.0012 0 -1.12416e-05 -1.12416e-05 -5.32108e-06 0.112416 34.8874 44.8345 
946 0.0014 0.0014 0 -1.10305e-05 -1.10305e-05 3.79408e-07 0.110305 9.0336 32.7386 
966 0.0004 0.0004 0 -1.01718e-06 -1.01718e-06 8.58107e-07 0.475344 31.0899 40.9243 