ITEM: TIMESTEP
25000
ITEM: NUMBER OF SURFS
1272
ITEM: BOX BOUNDS oo rr pp
0 0.3
0 0.3
-0.5 0.5
ITEM: SURFS id f_4[1] f_4[2] f_4[3] f_4[4] f_4[5] f_4[6] f_4[7] f_4[8] f_4[9] 
1 0.0008 0.0008 0 4.22735e-05 4.22735e-05 -1.74586e-05 9.95625 2541.02 7685.34 
21 0.0286 0.0286 0 0.00345895 0.00345895 0.000254221 34.5895 8800.56 11505.2 
41 0.0358 0.0358 0 0.00383739 0.00383739 -8.18053e-05 38.3739 9025.75 12789.1 
61 0.0368 0.0368 0 0.00403439 0.00403439 -0.00015344 40.3439 7997.56 11281.3 
81 0.041 0.041 0 0.0043466 0.0043466 -0.000109435 43.466 8037.85 10878.3 
101 0.0426 0.0426 0 0.00449034 0.00449034 2.69189e-05 44.9034 6894.57 10435.9 
121 0.0426 0.0426 0 0.00446173 0.00446173 8.12094e-05 44.6173 6583 10867.7 
141 0.0378 0.0378 0 0.00407757 0.00407757 -7.4098e-05 40.7757 8770.74 12255.2 
161 0.0414 0.0414 0 0.00434603 0.00434603 -2.25902e-05 43.4603 8620.44 11819.4 
181 0.0412 0.0412 0 0.00432657 0.00432657 0.000240891 43.2657 7511.35 10754.5 
201 0.0468 0.0468 0 0.00505562 0.00505562 0.000335991 50.5562 8006.27 12116.9 
221 0.0386 0.0386 0 0.00392005 0.00392005 0.000229492 39.2005 6113.75 8615.44 
241 0.043 0.043 0 0.00440304 0.00440304 0.000408895 44.0304 8626.92 11252 
261 0.0388 0.0388 0 0.00419541 0.00419541 0.000168207 41.9541 8216.52 11791 
281 0.0374 0.0374 0 0.00418324 0.00418324 -3.33176e-05 41.8324 8849.28 10830.2 
301 0.037 0.037 0 0.00404323 0.00404323 9.60317e-05 40.4323 9156.36 12899.1 
321 0.003 0.003 0 0.000368519 0.000368519 -1.89816e-05 36.5156 9147.07 14809.3 
341 0.0068 0.0068 0 0.000327368 0.000327368 -1.88288e-05 5.82986 2585.95 3563.25 
361 0.0054 0.0054 0 0.000267423 0.000267423 4.37304e-05 5.13205 1278.81 1790.93 
381 0.0046 0.0046 0 0.000290789 0.000290789 2.79813e-05 5.411 1672.53 2301.59 
401 0.0038 0.0038 0 0.000235318 0.000235318 -4.69055e-05 4.00105 2189.55 3440.23 
421 0.0034 0.0034 0 3.2955e-05 3.2955e-05 -1.60654e-05 3.11361 957.18 1129.97 
441 0.0048 0.0048 0 0.000323142 0.000323142 -2.95527e-05 4.70211 1808.57 2409.62 
461 0.0052 0.0052 0 0.000279349 0.000279349 -4.58785e-05 5.90057 2149.22 2657.88 
481 0.004 0.004 0 0.000148267 0.000148267 5.9266e-05 4.1679 1202.99 1306.48 
501 0.006 0.006 0 0.000368877 0.000368877 8.84691e-05 5.73722 2232.53 3149.95 
521 0.0032 0.0032 0 0.000218492 0.000218492 5.32633e-05 3.67054 1669.25 2633.61 
541 0.004 0.004 0 0.000116182 0.000116182 -2.48797e-05 4.362 951.526 1024.42 
561 0.0038 0.0038 0 0.000202593 0.000202593 1.74954e-05 3.99254 1195.71 2558.68 
581 0.0044 0.0044 0 0.000258556 0.000258556 -1.70945e-05 5.29275 1638.98 2281.7 
601 0.0034 0.0034 0 0.000177932 0.000177932 -9.30035e-05 3.69701 1863.51 2113.41 
621 0.0032 0.0032 0 0.000147548 0.000147548 -1.58812e-05 3.18638 557.891 1232.8 
641 0.0004 0.0004 0 -1.30649e-05 -1.30649e-05 1.47167e-05 5.52475 2351.36 2590.91 
661 0 0 0 0 0 0 0 0 0 
681 0 0 0 0 0 0 0 0 0 
701 0 0 0 0 0 0 0 0 0 
721 0 0 0 0 0 0 0 0 0 
741 0 0 0 0 0 0 0 0 0 
761 0.0002 0.0002 0 -2.00535e-05 -2.00535e-05 1.71297e-05 0.200535 22.9216 27.9852 
781 0.0002 0.0002 0 -1.43829e-05 -1.43829e-05 -1.40752e-05 0.143829 63.2245 82.5519 
801 0 0 0 0 0 0 0 0 0 
821 0.0002 0.0002 0 -9.38452e-06 -9.38452e-06 2.16473e-05 0.0938452 -87.2219 -58.4221 
841 0.0002 0.0002 0 -1.46325e-05 -1.46325e-05 0 0.146325 1.44445e-14 1.44445e-14 
861 0 0 0 0 0 0 0 0 0 
881 0.0004 0.0004 0 -2.53443e-05 -2.53443e-05 7.55799e-06 0.253443 4.09589 -4.70832 
901 0 0 0 0 0 0 0 0 0 
921 0 0 0 0 0 0 0 0 0 
941 0 0 0 0 0 0 0 0 0 
961 0 0 0 0 0 0 0 0 0 
981 0.005 0.005 0 0.000264471 0.000264471 -5.85563e-07 5.10542 1719.88 1915.16 
1001 0.0026 0.0026 0 0.000150802 0.000150802 1.84243e-05 2.91784 1343.86 1532.74 
1021 0.0044 0.0044 0 0.000114279 0.000114279 5.16027e-05 4.85058 670.12 955.542 
1041 0.0054 0.0054 0 0.000215358 0.000215358 -9.63684e-06 5.75687 1336.17 1824.66 
1061 0.0018 0.0018 0 0.000110008 0.000110008 -6.1443e-05 1.79927 619.698 596.8 
1081 0.0046 0.0046 0 0.000158343 0.000158343 3.84839e-06 5.44739 1251.81 1555.59 
1101 0.0034 0.0034 0 0.000149763 0.000149763 1.59543e-05 4.06816 629.762 921.847 
1121 0.0046 0.0046 0 0.000167184 0.000167184 -7.30701e-05 5.51611 1481.07 2164.54 
1141 0.0036 0.0036 0 0.000198001 0.000198001 2.83404e-05 4.43437 1134.81 1374.33 
1161 0.0048 0.0048 0 0.000261967 0.000261967 3.07467e-05 4.78288 1915.97 2158.28 
1181 0.006 0.006 0 0.000202019 0.000202019 -4.93788e-05 6.23935 2094.68 3308.92 
1201 0.0062 0.0062 0 0.000285655 0.000285655 4.29561e-05 6.15537 2021.17 2601.46 
1221 0.006 0.006 0 0.00020133 0.00020133 2.93131e-05 6.22955 1003.13 1875.82 
1241 0.006 0.006 0 0.000227447 0.000227447 -5.70828e-05 6.28553 1794.48 2635.15 
1261 0.0064 0.0064 0 0.000323352 0.000323352 -4.98254e-05 7.04193 2183.11 2980.89 
2 0.001 0.001 0 6.82577e-05 6.82577e-05 1.39026e-05 9.35745 3080.53 4571.6 
22 0.0352 0.0352 0 0.00382313 0.00382313 3.25672e-05 38.2313 8843.65 12780.8 
42 0.0416 0.0416 0 0.00456142 0.00456142 -0.00024116 45.6142 11991.2 14870.6 
62 0.04 0.04 0 0.0045552 0.0045552 9.1272e-05 45.552 9427.47 12499.9 
82 0.0438 0.0438 0 0.00456483 0.00456483 4.1934e-05 45.6483 9099.36 12441 
102 0.0412 0.0412 0 0.00419017 0.00419017 0.00011108 41.9017 8525.22 12053.9 
122 0.0428 0.0428 0 0.00475181 0.00475181 -6.62475e-06 47.5181 7128.44 10145.1 
142 0.0426 0.0426 0 0.00461936 0.00461936 0.000310379 46.1936 7100.39 10792.7 
162 0.0434 0.0434 0 0.00448757 0.00448757 -0.000119582 44.8757 6895.23 10265.1 
182 0.0504 0.0504 0 0.00524426 0.00524426 -5.10942e-05 52.4426 8915.88 11338.4 
202 0.0384 0.0384 0 0.00398328 0.00398328 -8.19029e-05 39.8328 7570.97 10416.2 
222 0.0452 0.0452 0 0.00468844 0.00468844 8.82224e-05 46.8844 7020.55 9458.95 
242 0.0436 0.0436 0 0.00459573 0.00459573 8.07637e-05 45.9573 8330.05 12351.4 
262 0.0424 0.0424 0 0.00420956 0.00420956 -0.000161821 42.0956 8339.88 12003.1 
282 0.041 0.041 0 0.00452339 0.00452339 0.000101726 45.2339 9111.2 12681.4 
302 0.0372 0.0372 0 0.00413834 0.00413834 -1.41559e-05 41.3834 9079.34 12868.5 
322 0.0022 0.0022 0 0.000242377 0.000242377 -2.61564e-05 25.8148 8979.37 10240.7 
342 0.0044 0.0044 0 0.000132461 0.000132461 -1.03188e-06 5.12331 937.364 1678.35 
362 0.0048 0.0048 0 0.000203048 0.000203048 9.30731e-05 5.00783 1674.3 2276.35 
382 0.0028 0.0028 0 0.000169204 0.000169204 2.00287e-05 3.1749 1197.48 1498.97 
402 0.005 0.005 0 0.000192979 0.000192979 0.00012076 5.332 1257.28 1987.87 
422 0.0046 0.0046 0 0.000140216 0.000140216 1.40144e-05 4.4629 543.423 847.069 
442 0.0052 0.0052 0 0.000250072 0.000250072 -4.62799e-05 6.90047 2081.89 2349.77 
462 0.0036 0.0036 0 0.00020049 0.00020049 7.91345e-05 4.29755 1920.15 2626.81 
482 0.0042 0.0042 0 0.000133554 0.000133554 8.02277e-05 4.7137 1171.08 1701.92 
502 0.004 0.004 0 8.92693e-05 8.92693e-05 -5.84016e-05 4.79507 940.946 1149.4 
522 0.0036 0.0036 0 0.000123084 0.000123084 -2.28041e-05 3.21956 618.805 788.342 
542 0.0044 0.0044 0 0.000183962 0.000183962 -7.31553e-06 4.73336 820.044 1266.59 
562 0.0046 0.0046 0 0.000221972 0.000221972 5.86041e-05 4.70907 926.129 1585.36 
582 0.0036 0.0036 0 3.69349e-05 3.69349e-05 1.20905e-05 4.40603 952.6 1201.33 
602 0.0032 0.0032 0 0.000153089 0.000153089 -4.00403e-05 3.40595 1223.88 1193.77 
622 0.0032 0.0032 0 0.000188755 0.000188755 -1.05835e-05 3.20306 1286.31 1645.82 
642 0 0 0 0 0 0 0 0 0 
662 0 0 0 0 0 0 0 0 0 
682 0.0002 0.0002 0 -4.30913e-05 -4.30913e-05 9.37114e-06 0.430913 36.6493 57.488 
702 0 0 0 0 0 0 0 0 0 
722 0 0 0 0 0 0 0 0 0 
742 0 0 0 0 0 0 0 0 0 
762 0 0 0 0 0 0 0 0 0 
782 0.0002 0.0002 0 -3.01405e-05 -3.01405e-05 -1.38968e-05 0.301405 -89.8871 -61.485 
802 0.0002 0.0002 0 -2.94264e-05 -2.94264e-05 1.73403e-05 0.294264 222.071 326.937 
822 0 0 0 0 0 0 0 0 0 
842 0.0004 0.0004 0 -2.02872e-05 -2.02872e-05 -4.80199e-07 0.202872 -23.3799 -56.9448 
862 0 0 0 0 0 0 0 0 0 
882 0.0002 0.0002 0 -6.70268e-06 -6.70268e-06 -2.29084e-05 0.0670268 25.4486 -0.281483 
902 0.0004 0.0004 0 -6.3311e-05 -6.3311e-05 -1.32458e-05 0.63311 126.002 178.024 
922 0.0002 0.0002 0 -1.21448e-05 -1.21448e-05 3.9907e-06 0.121448 5.01828 -24.8476 
942 0.0004 0.0004 0 -2.28569e-05 -2.28569e-05 4.88937e-06 0.228569 5.56533 13.7003 
962 0 0 0 0 0 0 0 0 0 
982 0.0032 0.0032 0 0.000142079 0.000142079 5.59671e-05 3.66637 426.926 1108.25 
1002 0.004 0.004 0 0.000232746 0.000232746 1.50051e-05 4.2742 1312.71 1539.74 
1022 0.0028 0.0028 0 0.000148716 0.000148716 -0.00010343 3.16853 569.816 803.97 
1042 0.0054 0.0054 0 0.000248553 0.000248553 3.34462e-05 5.33467 1273.16 1489.26 
1062 0.0032 0.0032 0 0.000156206 0.000156206 9.28099e-06 3.32651 1187.98 1358.29 
1082 0.0038 0.0038 0 0.000125034 0.000125034 6.30929e-06 3.72261 1571.07 2201.32 
1102 0.0034 0.0034 0 0.000109385 0.000109385 -2.16579e-05 3.47015 904.611 1399.16 
1122 0.0038 0.0038 0 0.000185991 0.000185991 -9.99102e-05 3.96721 1530.53 1844.2 
1142 0.0038 0.0038 0 0.000229032 0.000229032 -4.74393e-05 3.3498 1526.64 1928.37 
1162 0.0052 0.0052 0 0.000279084 0.000279084 -3.92197e-05 5.22284 1222.7 2019.8 
1182 0.0044 0.0044 0 0.000138233 0.000138233 5.70153e-05 3.99837 1400.12 1753.21 
1202 0.003 0.003 0 4.86584e-05 4.86584e-05 -9.92441e-05 3.26347 813.661 1132.78 
1222 0.0086 0.0086 0 0.00038785 0.00038785 -5.75e-05 9.00119 2198.4 3613.55 
1242 0.0072 0.0072 0 0.000584286 0.000584286 0.000138798 8.05547 4083.65 5464.2 
1262 0.0052 0.0052 0 0.000211005 0.000211005 5.6771e-05 4.73174 1741.78 2522.2 
3 0.0014 0.0014 0 3.29293e-05 3.29293e-05 -2.2694e-05 15.1356 2530.97 4517.14 
23 0.0338 0.0338 0 0.00404723 0.00404723 0.00024761 40.4723 11536.3 15349.8 
43 0.042 0.042 0 0.00472865 0.00472865 2.35534e-05 47.2865 10271 14773.6 
63 0.0392 0.0392 0 0.00392652 0.00392652 0.000156215 39.2652 7095.61 9914.68 
83 0.0454 0.0454 0 0.00477166 0.00477166 0.000235553 47.7166 8805.6 13077.7 
103 0.0484 0.0484 0 0.00500269 0.00500269 -9.70883e-06 50.0269 8059.36 12166.8 
123 0.0414 0.0414 0 0.00461009 0.00461009 -0.000117121 46.1009 7682.37 10126.9 
143 0.0454 0.0454 0 0.00513601 0.00513601 -0.000200946 51.3601 8964.68 11469.9 
163 0.045 0.045 0 0.00470432 0.00470432 6.28937e-05 47.0432 8000.58 11051.2 
183 0.0374 0.0374 0 0.0038385 0.0038385 -7.20127e-05 38.385 5198.86 7939.26 
203 0.0374 0.0374 0 0.00370062 0.00370062 -0.000140201 37.0062 5021.71 6440.1 
223 0.0516 0.0516 0 0.00558313 0.00558313 -0.000237135 55.8313 9217.09 13614.5 
243 0.0396 0.0396 0 0.00421987 0.00421987 0.000262511 42.1987 6722.22 10198 
263 0.0412 0.0412 0 0.00435192 0.00435192 -6.88292e-05 43.5192 8232.15 11592.6 
283 0.0398 0.0398 0 0.00449674 0.00449674 -0.000286315 44.9674 8018.69 11472 
303 0.0364 0.0364 0 0.00406437 0.00406437 -0.000172083 40.6437 10181.9 14619.1 
323 0.0016 0.0016 0 0.000227791 0.000227791 -1.63392e-05 22.423 9666.11 15470.7 
343 0.004 0.004 0 0.000105013 0.000105013 2.60321e-05 5.11888 1279.1 1887.53 
363 0.0042 0.0042 0 0.0002866 0.0002866 -2.61418e-06 4.58615 2058.98 2525.21 
383 0.0036 0.0036 0 0.000201631 0.000201631 1.28193e-05 3.96101 1682 1985.64 
403 0.0054 0.0054 0 0.000273816 0.000273816 3.92117e-05 5.60019 1897 2704.15 
423 0.0048 0.0048 0 0.000212464 0.000212464 3.41096e-05 5.01206 1740.56 2487.56 
443 0.005 0.005 0 0.000172884 0.000172884 2.14146e-05 5.26246 684.551 1177.49 
463 0.0044 0.0044 0 0.000329598 0.000329598 -1.9074e-06 5.68751 2252.45 2483.31 
483 0.0046 0.0046 0 0.000255024 0.000255024 -1.35025e-05 4.64064 1643.21 2024.9 
503 0.0028 0.0028 0 9.7336e-05 9.7336e-05 -2.71511e-05 3.4414 769.257 958.698 
523 0.004 0.004 0 0.00011089 0.00011089 -8.24248e-05 3.64741 738.981 1198.25 
543 0.0034 0.0034 0 7.25588e-05 7.25588e-05 2.91182e-06 3.99241 667.906 647.666 
563 0.0048 0.0048 0 0.000193173 0.000193173 1.26303e-05 4.50019 1070.05 1342.35 
583 0.0034 0.0034 0 0.000176851 0.000176851 -9.23949e-05 3.33214 995.103 1091.12 
603 0.005 0.005 0 0.000232352 0.000232352 3.14932e-05 4.86091 1441.79 1872.09 
623 0.0036 0.0036 0 0.000242487 0.000242487 -7.87423e-06 3.61507 775.398 1327.47 
643 0 0 0 0 0 0 0 0 0 
663 0 0 0 0 0 0 0 0 0 
683 0 0 0 0 0 0 0 0 0 
703 0 0 0 0 0 0 0 0 0 
723 0.0004 0.0004 0 -4.00302e-05 -4.00302e-05 -2.49376e-06 0.400302 86.4237 326.169 
743 0 0 0 0 0 0 0 0 0 
763 0 0 0 0 0 0 0 0 0 
783 0 0 0 0 0 0 0 0 0 
803 0 0 0 0 0 0 0 0 0 
823 0.0006 0.0006 0 -4.56711e-05 -4.56711e-05 -1.51151e-05 0.456711 19.1523 100.186 
843 0.0004 0.0004 0 -1.75411e-05 -1.75411e-05 -1.47135e-05 0.175411 -28.7345 -59.3572 
863 0.0006 0.0006 0 -6.20664e-05 -6.20664e-05 2.39689e-05 0.620664 156.293 170.897 
883 0.001 0.001 0 -6.74255e-05 -6.74255e-05 3.95764e-06 0.674255 -63.8309 -50.6172 
903 0.0002 0.0002 0 -1.538e-05 -1.538e-05 -1.72438e-05 0.1538 110.071 97.6241 
923 0 0 0 0 0 0 0 0 0 
943 0 0 0 0 0 0 0 0 0 
963 0.0002 0.0002 0 7.30728e-06 7.30728e-06 1.88863e-06 1.07922 561.48 284.251 
983 0.0038 0.0038 0 0.000199935 0.000199935 0.00013303 3.58687 1188.55 1589.86 
1003 0.004 0.004 0 0.000253033 0.000253033 -4.97585e-05 4.2589 1354.58 1780.36 
1023 0.0036 0.0036 0 0.000209732 0.000209732 4.20275e-05 3.96267 1326.05 1457.88 
1043 0.003 0.003 0 0.000131816 0.000131816 3.37837e-05 2.87671 696.348 890.924 
1063 0.0048 0.0048 0 0.000158169 0.000158169 -1.97976e-05 5.29927 1482.55 2375.05 
1083 0.0056 0.0056 0 0.000276575 0.000276575 0.000130549 6.03862 1978.09 2658.25 
1103 0.004 0.004 0 0.000219408 0.000219408 8.08834e-05 4.36575 1508.99 2196.46 
1123 0.0048 0.0048 0 0.000205651 0.000205651 -3.63284e-05 4.71635 1176.23 1895.5 
1143 0.0034 0.0034 0 8.68461e-05 8.68461e-05 2.14124e-05 3.30477 702.583 873.664 
1163 0.005 0.005 0 0.00012051 0.00012051 7.44131e-05 5.37913 1299.51 1518.39 
1183 0.0044 0.0044 0 0.000167074 0.000167074 4.06341e-05 4.68102 903.658 1389.5 
1203 0.0046 0.0046 0 0.000268261 0.000268261 1.4488e-05 4.69549 2067.3 2262.03 
1223 0.0046 0.0046 0 0.000135526 0.000135526 2.25727e-06 5.37998 1035.98 1910.06 
1243 0.0034 0.0034 0 -2.34934e-05 -2.34934e-05 1.6125e-06 3.88628 658.134 778.769 
1263 0.0068 0.0068 0 0.000278994 0.000278994 -4.64784e-05 7.36081 2039.94 3254.23 
4 0.001 0.001 0 0.000102501 0.000102501 6.31991e-06 10.621 4763.97 6969.75 
24 0.0362 0.0362 0 0.00444678 0.00444678 1.53628e-05 44.4678 9465.26 13852.8 
44 0.0366 0.0366 0 0.00374401 0.00374401 -9.16007e-05 37.4401 6083.68 9835.25 
64 0.043 0.043 0 0.00457549 0.00457549 -7.22119e-05 45.7549 8403.53 12692.8 
84 0.043 0.043 0 0.0046834 0.0046834 -0.00012428 46.834 8721.94 12519.2 
104 0.039 0.039 0 0.00413523 0.00413523 0.000222169 41.3523 7910.78 10919 
124 0.0414 0.0414 0 0.00440254 0.00440254 0.000110192 44.0254 9338.99 13601.1 
144 0.0398 0.0398 0 0.00412466 0.00412466 -0.000104037 41.2466 5701.09 7656.24 
164 0.04 0.04 0 0.00420241 0.00420241 0.000248875 42.0241 6071.7 8868.62 
184 0.042 0.042 0 0.00444237 0.00444237 -9.94673e-05 44.4237 8045.21 10779.1 
204 0.0452 0.0452 0 0.00458791 0.00458791 -0.000222517 45.8791 9426.21 12465.6 
224 0.046 0.046 0 0.00482906 0.00482906 -0.000141964 48.2906 8695.55 12128.2 
244 0.0426 0.0426 0 0.00478347 0.00478347 0.000120853 47.8347 7602.26 10859.5 
264 0.0434 0.0434 0 0.00466932 0.00466932 9.37652e-05 46.6932 10422.8 13474.6 
284 0.0346 0.0346 0 0.00397357 0.00397357 0.000218526 39.7357 7280.01 10060.2 
304 0.034 0.034 0 0.00360534 0.00360534 -8.98153e-05 36.0534 7742.54 10478.2 
324 0.0022 0.0022 0 0.000295332 0.000295332 -4.16039e-06 25.9494 15472 19019.2 
344 0.0052 0.0052 0 0.000242355 0.000242355 -4.51524e-05 5.10644 2207.56 2878.84 
364 0.0052 0.0052 0 0.000239077 0.000239077 -1.7652e-05 5.14003 1256.02 2190.7 
384 0.0042 0.0042 0 0.000170184 0.000170184 -8.16116e-06 4.75512 1588.86 2451.68 
404 0.0058 0.0058 0 0.000110881 0.000110881 0.000110283 7.08113 1832.14 1991.99 
424 0.0058 0.0058 0 0.000215871 0.000215871 0.000105983 7.7283 2006.84 2403.87 
444 0.0046 0.0046 0 0.000212296 0.000212296 -5.0917e-05 5.32097 1396.4 2060.97 
464 0.0044 0.0044 0 0.000203072 0.000203072 -5.28791e-05 4.7176 1174.1 1504.8 
484 0.005 0.005 0 0.000259008 0.000259008 -4.16469e-05 5.30213 1169.35 1665.11 
504 0.0024 0.0024 0 0.000119727 0.000119727 -8.45544e-06 2.7399 1044.79 1273.91 
524 0.004 0.004 0 0.000313254 0.000313254 -3.64511e-06 4.46018 2455.12 3118.76 
544 0.0036 0.0036 0 0.000192079 0.000192079 3.27582e-05 3.87374 1139.63 1352.55 
564 0.0042 0.0042 0 9.75153e-05 9.75153e-05 6.12714e-05 4.29394 533.957 919.545 
584 0.0062 0.0062 0 0.000287811 0.000287811 -4.83933e-05 6.35573 1592.75 2267.24 
604 0.003 0.003 0 0.000132596 0.000132596 6.2883e-05 3.01815 983.022 918.166 
624 0.0044 0.0044 0 0.000198389 0.000198389 -1.56257e-05 4.68993 982.253 1262.23 
644 0.0002 0.0002 0 5.01645e-06 5.01645e-06 1.22499e-05 1.59724 1200.73 1154.23 
664 0 0 0 0 0 0 0 0 0 
684 0 0 0 0 0 0 0 0 0 
704 0.0002 0.0002 0 -1.7994e-05 -1.7994e-05 -6.22707e-06 0.17994 -27.7866 -33.1703 
724 0 0 0 0 0 0 0 0 0 
744 0 0 0 0 0 0 0 0 0 
764 0.0002 0.0002 0 -2.61289e-05 -2.61289e-05 8.47544e-06 0.261289 72.6313 81.4995 
784 0 0 0 0 0 0 0 0 0 
804 0 0 0 0 0 0 0 0 0 
824 0 0 0 0 0 0 0 0 0 
844 0 0 0 0 0 0 0 0 0 
864 0.0002 0.0002 0 -2.07571e-05 -2.07571e-05 -2.12419e-06 0.207571 34.7559 31.2281 
884 0.0002 0.0002 0 -9.21507e-06 -9.21507e-06 4.11021e-06 0.0921507 62.5511 274.444 
904 0 0 0 0 0 0 0 0 0 
924 0.0002 0.0002 0 -2.14644e-05 -2.14644e-05 1.07939e-05 0.214644 -8.61421 8.07622 
944 0 0 0 0 0 0 0 0 0 
964 0 0 0 0 0 0 0 0 0 
984 0.003 0.003 0 0.000194998 0.000194998 1.65461e-05 3.48884 1178.2 1674.03 
1004 0.0038 0.0038 0 0.000193442 0.000193442 7.30798e-05 3.69056 1598.36 1714.08 
1024 0.0036 0.0036 0 0.000100069 0.000100069 7.8978e-05 3.77545 906.301 1040.02 
1044 0.0042 0.0042 0 0.000147313 0.000147313 -7.9317e-05 4.06103 963.202 1434.85 
1064 0.0056 0.0056 0 0.000199906 0.000199906 -2.54054e-05 6.57256 1283.81 1979.1 
1084 0.004 0.004 0 0.000160237 0.000160237 -8.26427e-06 4.07837 1212.3 1320.34 
1104 0.0042 0.0042 0 0.000140919 0.000140919 -2.86721e-06 4.55457 1210.07 2041.58 
1124 0.0072 0.0072 0 0.000257342 0.000257342 1.01873e-05 7.6919 1373.21 1782.55 
1144 0.0054 0.0054 0 0.000275367 0.000275367 -7.87885e-05 5.13978 2112.71 2806.28 
1164 0.0038 0.0038 0 0.000243167 0.000243167 -3.88156e-05 4.85233 1627.49 2397.58 
1184 0.0062 0.0062 0 0.000108071 0.000108071 2.78147e-05 5.95119 1385.21 1992.59 
1204 0.0058 0.0058 0 0.000260503 0.000260503 2.41991e-05 6.1311 1842.7 2227.12 
1224 0.0036 0.0036 0 0.00016314 0.00016314 -6.47775e-05 3.91788 1246.55 1507.51 
1244 0.0084 0.0084 0 0.000573483 0.000573483 1.32758e-05 8.13742 5243.85 6311.26 
1264 0.004 0.004 0 0.000168141 0.000168141 6.07773e-05 3.82593 1496.2 2153.25 
5 0.0008 0.0008 0 8.60801e-05 8.60801e-05 1.27859e-06 11.2151 1416.95 1775.82 
25 0.0354 0.0354 0 0.00426005 0.00426005 -0.000106009 42.6005 12848.6 15602 
45 0.0362 0.0362 0 0.00417846 0.00417846 -1.59902e-05 41.7846 7942.76 12127.3 
65 0.0366 0.0366 0 0.00401166 0.00401166 -0.000289885 40.1166 8995.44 12151.1 
85 0.0374 0.0374 0 0.00386041 0.00386041 0.000415653 38.6041 6654.93 8728.71 
105 0.0364 0.0364 0 0.00370907 0.00370907 -5.18903e-05 37.0907 6345.21 9904.72 
125 0.0392 0.0392 0 0.00420698 0.00420698 0.000175466 42.0698 6143.7 9453.18 
145 0.04 0.04 0 0.00409935 0.00409935 0.00018661 40.9935 7758.28 11020.2 
165 0.04 0.04 0 0.00418395 0.00418395 0.000190887 41.8395 8734.42 11895.1 
185 0.0394 0.0394 0 0.00416509 0.00416509 -2.35925e-05 41.6509 6120.74 9155.31 
205 0.0422 0.0422 0 0.00424838 0.00424838 5.82128e-05 42.4838 6959.78 9811.04 
225 0.0452 0.0452 0 0.00476049 0.00476049 0.000447377 47.6049 8683.29 11557.2 
245 0.0374 0.0374 0 0.00394144 0.00394144 -0.000241919 39.4144 7630.15 9710.57 
265 0.039 0.039 0 0.00423694 0.00423694 0.000141492 42.3694 7105.71 10728.6 
285 0.034 0.034 0 0.00371159 0.00371159 -2.52251e-05 37.1159 6726.12 10047.4 
305 0.0372 0.0372 0 0.00412983 0.00412983 4.80162e-05 41.2983 8945.04 12696.7 
325 0.0024 0.0024 0 0.000272098 0.000272098 -1.39617e-06 28.9917 8526.65 13586.6 
345 0.0046 0.0046 0 0.000226757 0.000226757 5.34275e-05 4.04313 815.727 1442.78 
365 0.0042 0.0042 0 0.000286433 0.000286433 -2.70965e-05 5.06801 1262.94 1943.91 
385 0.0044 0.0044 0 0.000210016 0.000210016 8.98019e-05 5.41324 1507.48 2253.27 
405 0.0048 0.0048 0 0.00031954 0.00031954 -9.57003e-05 4.23578 1397.09 2060.95 
425 0.004 0.004 0 0.000277993 0.000277993 1.65244e-05 4.46304 1461.26 2097.31 
445 0.004 0.004 0 0.000174211 0.000174211 3.24354e-05 4.1579 777.586 832.69 
465 0.005 0.005 0 0.000267073 0.000267073 -1.09312e-06 5.49284 1667.34 2298.9 
485 0.0046 0.0046 0 0.00014833 0.00014833 4.86505e-05 4.93758 985.555 1779.89 
505 0.0038 0.0038 0 0.000213917 0.000213917 -9.92888e-06 4.65123 1335.79 1933.22 
525 0.0052 0.0052 0 0.000289886 0.000289886 3.63109e-05 4.83052 1757.74 2569.02 
545 0.0036 0.0036 0 0.000187877 0.000187877 -1.47692e-05 2.94942 1129.98 1699.27 
565 0.0034 0.0034 0 0.000116224 0.000116224 3.59835e-05 4.46228 1159.26 1245.45 
585 0.0048 0.0048 0 0.000290465 0.000290465 3.18068e-05 4.67676 1984.71 2574.31 
605 0.0044 0.0044 0 0.000162556 0.000162556 3.16897e-05 4.47585 1900.31 2667.85 
625 0.0028 0.0028 0 0.000126074 0.000126074 3.68716e-05 2.77592 482.981 632.605 
645 0 0 0 0 0 0 0 0 0 
665 0 0 0 0 0 0 0 0 0 
685 0.0004 0.0004 0 -2.95117e-05 -2.95117e-05 -4.63115e-05 0.295117 155.54 175.249 
705 0 0 0 0 0 0 0 0 0 
725 0.0004 0.0004 0 -3.23836e-05 -3.23836e-05 1.00857e-06 0.323836 -38.5826 -81.186 
745 0 0 0 0 0 0 0 0 0 
765 0 0 0 0 0 0 0 0 0 
785 0.0004 0.0004 0 -3.69942e-05 -3.69942e-05 5.99464e-06 0.369942 -126.32 -111.03 
805 0.0002 0.0002 0 -3.11856e-05 -3.11856e-05 3.09443e-06 0.311856 47.508 191.297 
825 0.0004 0.0004 0 -2.95171e-05 -2.95171e-05 2.70871e-05 0.295171 190.426 167.743 
845 0.0004 0.0004 0 -2.72554e-05 -2.72554e-05 5.828e-06 0.272554 -11.6263 29.6646 
865 0.0002 0.0002 0 -2.84376e-05 -2.84376e-05 -4.78114e-06 0.284376 68.752 60.0941 
885 0 0 0 0 0 0 0 0 0 
905 0 0 0 0 0 0 0 0 0 
925 0.0004 0.0004 0 -4.31319e-05 -4.31319e-05 2.7506e-05 0.431319 -28.752 -38.9147 
945 0.0002 0.0002 0 -1.85403e-05 -1.85403e-05 8.65195e-06 0.185403 31.7361 22.1654 
965 0 0 0 0 0 0 0 0 0 
985 0.0034 0.0034 0 0.000184468 0.000184468 1.10029e-05 4.04329 1285.93 1416.58 
1005 0.006 0.006 0 0.000411089 0.000411089 0.000109084 6.88778 2466.02 3721.42 
1025 0.0042 0.0042 0 1.03002e-05 1.03002e-05 9.4937e-05 4.21164 544.832 1082.65 
1045 0.0036 0.0036 0 0.000179729 0.000179729 -5.28661e-07 3.74359 569.64 677.287 
1065 0.004 0.004 0 0.000109056 0.000109056 -2.24712e-05 3.63092 934.102 1091.97 
1085 0.0046 0.0046 0 0.000262328 0.000262328 -9.72881e-07 4.94753 1444.17 2069.45 
1105 0.005 0.005 0 0.000193644 0.000193644 3.88119e-05 4.67151 1205.72 1806.34 
1125 0.0044 0.0044 0 7.56697e-05 7.56697e-05 1.03475e-05 4.9735 731.882 1024.08 
1145 0.0026 0.0026 0 3.47998e-05 3.47998e-05 1.82466e-05 3.14921 586.317 878.319 
1165 0.0032 0.0032 0 0.000166539 0.000166539 6.12269e-05 3.35865 940.521 1277.08 
1185 0.0048 0.0048 0 0.000181126 0.000181126 -9.98359e-06 5.02203 1278.24 2300.21 
1205 0.0048 0.0048 0 0.000134179 0.000134179 2.50986e-05 4.23247 411.532 791.277 
1225 0.004 0.004 0 0.000158879 0.000158879 -1.6698e-05 4.59018 1634.15 3121.67 
1245 0.0034 0.0034 0 0.000273537 0.000273537 4.10127e-05 3.61424 1769.62 2524.95 
1265 0.004 0.004 0 0.000164008 0.000164008 -6.33928e-06 3.71745 1258.87 1800.21 
6 0.0004 0.0004 0 3.03603e-05 3.03603e-05 3.07871e-06 4.42901 -149.584 793.972 
26 0.032 0.032 0 0.00357069 0.00357069 9.74534e-05 35.7069 8761.72 12236.7 
46 0.0386 0.0386 0 0.00427812 0.00427812 0.000151371 42.7812 7619.3 10403.1 
66 0.0316 0.0316 0 0.00339622 0.00339622 -9.54429e-05 33.9622 6825.84 9480.36 
86 0.0388 0.0388 0 0.00420421 0.00420421 -0.000135578 42.0421 6998.07 9955.55 
106 0.0412 0.0412 0 0.00443364 0.00443364 -0.000224918 44.3364 8497.66 12023.3 
126 0.0426 0.0426 0 0.00452418 0.00452418 1.92521e-07 45.2418 7334.74 10564.6 
146 0.0426 0.0426 0 0.0043713 0.0043713 0.000358991 43.713 8299.4 10740.5 
166 0.0434 0.0434 0 0.00436638 0.00436638 -0.000102965 43.6638 7792.9 11157.7 
186 0.041 0.041 0 0.00447511 0.00447511 0.00013466 44.7511 10127.6 12848.3 
206 0.0414 0.0414 0 0.004288 0.004288 9.04999e-05 42.88 8515.15 11144.9 
226 0.0452 0.0452 0 0.00466712 0.00466712 7.74845e-05 46.6712 8252.81 11004.2 
246 0.036 0.036 0 0.00415596 0.00415596 -0.000585443 41.5596 7118.28 10129.8 
266 0.041 0.041 0 0.00436435 0.00436435 3.09592e-05 43.6435 5925.09 8246.35 
286 0.038 0.038 0 0.00413452 0.00413452 0.000105494 41.3452 8870.28 11189 
306 0.0338 0.0338 0 0.00377179 0.00377179 -0.000334038 37.7179 7920.08 11436.3 
326 0.0012 0.0012 0 0.000112851 0.000112851 -3.90449e-05 12.5903 6303.39 8463.53 
346 0.0066 0.0066 0 0.000316357 0.000316357 5.42992e-05 6.05533 2789.68 3964.09 
366 0.0048 0.0048 0 0.000213834 0.000213834 -2.1741e-06 4.94743 1799.69 2295.14 
386 0.0046 0.0046 0 0.000133726 0.000133726 5.74673e-05 4.57946 1153.12 1937.86 
406 0.004 0.004 0 0.000157935 0.000157935 1.49787e-05 4.38802 1103.45 1549.02 
426 0.0046 0.0046 0 0.000292607 0.000292607 -6.51971e-05 4.89403 2035.21 3136.08 
446 0.0052 0.0052 0 0.000266858 0.000266858 2.27529e-06 5.42608 1145.77 1726.55 
466 0.0034 0.0034 0 9.24948e-05 9.24948e-05 -6.16417e-05 2.67645 610.463 1153.79 
486 0.004 0.004 0 0.000155458 0.000155458 2.77476e-05 4.21695 846.065 953.703 
506 0.0036 0.0036 0 0.000200823 0.000200823 5.22908e-05 4.3143 1350.54 1969.67 
526 0.004 0.004 0 0.000207328 0.000207328 -2.21376e-05 4.4895 1677.87 1866.75 
546 0.0036 0.0036 0 0.000206901 0.000206901 -0.000111572 3.91781 1046.95 1165.99 
566 0.0044 0.0044 0 0.000234387 0.000234387 3.85608e-06 3.88785 1800.87 2324.83 
586 0.0044 0.0044 0 0.000234323 0.000234323 -4.62177e-05 4.36492 1931.89 2260.13 
606 0.0046 0.0046 0 0.000238096 0.000238096 -0.000107105 5.16274 3142.01 3698.28 
626 0.0028 0.0028 0 0.000133937 0.000133937 2.7239e-05 2.75129 1151.05 1232.71 
646 0 0 0 0 0 0 0 0 0 
666 0 0 0 0 0 0 0 0 0 
686 0.0002 0.0002 0 -2.16932e-05 -2.16932e-05 2.86882e-06 0.216932 23.8295 108.324 
706 0.0004 0.0004 0 -2.68921e-05 -2.68921e-05 2.82802e-05 0.268921 147.277 143.896 
726 0.0002 0.0002 0 -7.31007e-06 -7.31007e-06 1.49693e-06 0.0731007 14.4228 96.0922 
746 0 0 0 0 0 0 0 0 0 
766 0 0 0 0 0 0 0 0 0 
786 0.0002 0.0002 0 -2.01791e-05 -2.01791e-05 6.43862e-06 0.201791 49.4398 163.466 
806 0.0004 0.0004 0 -3.27446e-05 -3.27446e-05 -8.83829e-06 0.327446 119.78 323.969 
826 0.0002 0.0002 0 -1.19932e-05 -1.19932e-05 -1.22335e-06 0.119932 8.22208 88.8866 
846 0.0002 0.0002 0 -2.40706e-05 -2.40706e-05 -1.54649e-05 0.240706 -13.8604 0.753244 
866 0.0002 0.0002 0 -2.39711e-05 -2.39711e-05 -5.24871e-07 0.239711 11.0666 16.8878 
886 0.0002 0.0002 0 -1.79784e-05 -1.79784e-05 -1.72753e-06 0.179784 73.5997 50.8699 
906 0 0 0 0 0 0 0 0 0 
926 0.0004 0.0004 0 -4.70966e-05 -4.70966e-05 4.09751e-06 0.470966 -89.6481 -32.2834 
946 0 0 0 0 0 0 0 0 0 
966 0 0 0 0 0 0 0 0 0 
986 0.0042 0.0042 0 0.000266842 0.000266842 -5.98509e-06 3.53522 1634.52 2103.4 
1006 0.0044 0.0044 0 0.000120965 0.000120965 -1.37875e-05 4.3086 496.296 945.982 
1026 0.0026 0.0026 0 0.000158114 0.000158114 -3.08245e-05 3.29528 559.913 879.507 
1046 0.0044 0.0044 0 0.000149214 0.000149214 -2.65711e-05 4.73512 1229.96 1332.32 
1066 0.004 0.004 0 0.000200106 0.000200106 7.30482e-05 4.2898 1361.39 1924.9 
1086 0.0048 0.0048 0 0.000181047 0.000181047 -3.18695e-05 5.16155 1370 1591.33 
1106 0.0032 0.0032 0 6.54868e-05 6.54868e-05 -3.81303e-05 3.2872 773.863 1102.86 
1126 0.0046 0.0046 0 0.000273155 0.000273155 3.30543e-05 4.41235 2686.72 3012.11 
1146 0.0054 0.0054 0 0.000231699 0.000231699 -2.0557e-06 6.17697 1066.22 1652.41 
1166 0.0036 0.0036 0 0.000123182 0.000123182 6.82333e-07 3.58724 375.871 924.702 
1186 0.0044 0.0044 0 0.000282853 0.000282853 2.48672e-05 5.44157 1090.25 1245.07 
1206 0.005 0.005 0 0.000252651 0.000252651 -6.46358e-05 5.33623 1904.75 2432.86 
1226 0.0058 0.0058 0 0.000266971 0.000266971 -1.81325e-05 5.6988 1935.88 2747.52 
1246 0.0048 0.0048 0 0.000168278 0.000168278 1.86555e-05 4.20315 723.206 967.684 
1266 0.0066 0.0066 0 0.000361035 0.000361035 -6.13589e-06 5.68212 1865.49 3078.33 
7 0.0002 0.0002 0 1.14475e-05 1.14475e-05 -3.9588e-06 3.5997 1377.46 1576.54 
27 0.0358 0.0358 0 0.00410833 0.00410833 5.77275e-05 41.0833 9444.72 14379.2 
47 0.0402 0.0402 0 0.00469264 0.00469264 -5.41695e-05 46.9264 9616.26 13997.6 
67 0.0378 0.0378 0 0.00418619 0.00418619 -0.000167873 41.8619 6991.76 10503.6 
87 0.044 0.044 0 0.00475302 0.00475302 6.0802e-05 47.5302 10478.2 13124.8 
107 0.043 0.043 0 0.00439142 0.00439142 -5.95979e-05 43.9142 7434.02 10413 
127 0.0376 0.0376 0 0.00405892 0.00405892 -5.17497e-05 40.5892 6675.6 8811.84 
147 0.0478 0.0478 0 0.00501284 0.00501284 0.000111156 50.1284 7266.23 12158.5 
167 0.041 0.041 0 0.004294 0.004294 -6.44511e-05 42.94 7150.05 10069.7 
187 0.0384 0.0384 0 0.0040909 0.0040909 -9.84177e-05 40.909 6160 8921.25 
207 0.0442 0.0442 0 0.00471986 0.00471986 -0.000349722 47.1986 9836.43 12656.8 
227 0.0374 0.0374 0 0.00387919 0.00387919 -0.000112981 38.7919 6567.98 9459.44 
247 0.0402 0.0402 0 0.00438907 0.00438907 0.000212729 43.8907 8429.05 12089.2 
267 0.0402 0.0402 0 0.00415782 0.00415782 9.24463e-06 41.5782 7810.55 11378.9 
287 0.0376 0.0376 0 0.00398214 0.00398214 -0.000173904 39.8214 8095.71 10807.9 
307 0.03 0.03 0 0.00350941 0.00350941 5.03986e-05 35.0941 9623.84 12698 
327 0.0016 0.0016 0 0.000127842 0.000127842 2.58566e-05 16.8785 3604.49 4316.94 
347 0.0054 0.0054 0 0.000224775 0.000224775 -8.79894e-06 5.77508 1943.06 2742.52 
367 0.0056 0.0056 0 0.000161851 0.000161851 2.43301e-05 6.64258 1356.26 1647.18 
387 0.0042 0.0042 0 0.000192439 0.000192439 2.11287e-05 4.61122 1896.51 2219.63 
407 0.0046 0.0046 0 0.000235389 0.000235389 -3.60035e-05 5.06811 1363.54 2152.27 
427 0.005 0.005 0 9.66566e-05 9.66566e-05 -6.77667e-05 5.2386 1880.73 2748.32 
447 0.0032 0.0032 0 0.000208213 0.000208213 -7.51282e-05 3.82347 573.173 782.448 
467 0.0046 0.0046 0 0.000262509 0.000262509 6.69505e-06 4.87501 2286.77 3353.49 
487 0.0044 0.0044 0 9.42067e-05 9.42067e-05 -5.90576e-05 4.88103 858.554 1663.62 
507 0.005 0.005 0 0.00011275 0.00011275 1.11002e-05 5.80689 739.259 957.936 
527 0.0048 0.0048 0 0.000252673 0.000252673 1.05146e-05 5.53606 1196.38 2349.01 