ITEM: TIMESTEP
25000
ITEM: NUMBER OF SURFS
1272
ITEM: BOX BOUNDS oo rr pp
0 0.3
0 0.3
-0.5 0.5
ITEM: SURFS id f_4[1] f_4[2] f_4[3] f_4[4] f_4[5] f_4[6] f_4[7] f_4[8] f_4[9] 
1 0.0016 0.0016 0 0.000310843 0.000310843 -8.23969e-05 42.6994 14140.2 22608.7 
41 0.115 0.115 0 0.0382148 0.0382148 -0.000281796 382.148 58579.5 74801.6 
81 0.1374 0.1374 0 0.0458766 0.0458766 0.000252216 458.766 56132.8 67222.1 
121 0.1356 0.1356 0 0.0452399 0.0452399 1.9931e-05 452.399 51025.3 65200.7 
161 0.132 0.132 0 0.0419961 0.0419961 0.00044649 419.961 39700.8 60092.5 
201 0.1396 0.1396 0 0.0460744 0.0460744 -6.35035e-05 460.744 51761.7 70577.9 
241 0.1372 0.1372 0 0.0447209 0.0447209 -0.000617603 447.209 50394 70122.7 
281 0.127 0.127 0 0.0416508 0.0416508 -0.000829057 416.508 54085.3 72923.2 
321 0.0082 0.0082 0 0.0033644 0.0033644 0.000211518 337.852 85241.5 103275 
361 0.0124 0.0124 0 0.00179053 0.00179053 0.000347518 38.6946 7308.63 8359.31 
401 0.0124 0.0124 0 0.000429949 0.000429949 0.000131544 42.4315 6665.61 7663.49 
441 0.0122 0.0122 0 0.00109736 0.00109736 -0.000423776 38.0293 4865.59 6665.07 
481 0.01 0.01 0 0.00104716 0.00104716 1.33089e-05 31.9569 662.091 1180.36 
521 0.0122 0.0122 0 0.000877965 0.000877965 0.000273139 39.4002 4111.43 6242.69 
561 0.0144 0.0144 0 0.000725181 0.000725181 6.92227e-05 45.0685 1409.16 2878.37 
601 0.0126 0.0126 0 0.00112219 0.00112219 0.000223782 41.2501 5685 6628.15 
641 0.0006 0.0006 0 0.000110636 0.000110636 -7.37424e-05 16.2501 8659.13 10585.6 
681 0.0022 0.0022 0 -0.000563555 -0.000563555 -5.09688e-05 5.63555 758.723 1478.07 
721 0.0022 0.0022 0 -0.000528774 -0.000528774 9.76199e-05 5.28774 89.9567 230.577 
761 0.002 0.002 0 -0.000665934 -0.000665934 0.00015691 6.65934 1113.42 700.176 
801 0.0034 0.0034 0 -0.00106015 -0.00106015 0.000152511 10.6015 -342.475 -314.305 
841 0.002 0.002 0 -0.00059424 -0.00059424 6.54259e-05 5.9424 609.95 908.926 
881 0.0022 0.0022 0 -0.000630524 -0.000630524 0.000107177 6.30524 894.806 1314.2 
921 0.0024 0.0024 0 -0.000691335 -0.000691335 -0.000217108 6.91335 1040.04 660.392 
961 0 0 0 0 0 0 0 0 0 
1001 0.0116 0.0116 0 0.000457827 0.000457827 -9.03616e-05 36.8997 3036.33 4477.67 
1041 0.0162 0.0162 0 0.00110945 0.00110945 -3.94835e-06 51.3736 4717.45 7168.41 
1081 0.012 0.012 0 0.00036944 0.00036944 6.8837e-05 36.086 3906.29 4275.67 
1121 0.0114 0.0114 0 0.00053595 0.00053595 0.000182229 31.0864 2831.22 4371.88 
1161 0.0138 0.0138 0 0.000838519 0.000838519 0.000170667 48.5428 6688.64 8635.75 
1201 0.0162 0.0162 0 0.0010515 0.0010515 -0.000341215 52.1435 8174.46 9831.18 
1241 0.014 0.014 0 0.00121204 0.00121204 -0.000191219 47.462 7382.52 10394.2 
2 0.0016 0.0016 0 0.000530677 0.000530677 -3.27226e-05 43.36 10521.7 10349.7 
42 0.118 0.118 0 0.0384628 0.0384628 -0.00100272 384.628 46663.2 65738.9 
82 0.1192 0.1192 0 0.0398869 0.0398869 0.000217041 398.869 46043.3 61970.8 
122 0.1288 0.1288 0 0.0413252 0.0413252 0.000547909 413.252 51718.6 69122.8 
162 0.1404 0.1404 0 0.0454674 0.0454674 0.00062813 454.674 50548.7 70391.6 
202 0.141 0.141 0 0.0459543 0.0459543 0.000946857 459.543 44434.4 68823.1 
242 0.1376 0.1376 0 0.0455753 0.0455753 -0.00035158 455.753 52610.2 69955.4 
282 0.133 0.133 0 0.0439279 0.0439279 -0.0012682 439.279 62014.5 85459.7 
322 0.0062 0.0062 0 0.00235453 0.00235453 0.000166275 230.636 31652.1 54658.1 
362 0.0148 0.0148 0 0.0017463 0.0017463 4.19836e-05 46.9865 8707.82 12320.8 
402 0.0162 0.0162 0 0.00104198 0.00104198 -0.000727732 53.3917 7654.36 7784.93 
442 0.0136 0.0136 0 0.00169448 0.00169448 8.15715e-05 44.4645 5154.55 6954.17 
482 0.0122 0.0122 0 0.0008452 0.0008452 -6.70234e-05 40.6998 6176.08 7125.65 
522 0.0122 0.0122 0 0.0012828 0.0012828 5.82305e-05 38.2458 6273.74 10150 
562 0.0128 0.0128 0 0.000972815 0.000972815 0.000641309 44.8995 5978.95 7964.5 
602 0.0112 0.0112 0 0.000858421 0.000858421 0.000124642 36.7116 4379.23 5149.71 
642 0.0006 0.0006 0 -2.06656e-05 -2.06656e-05 4.14843e-05 22.4506 -539.506 -545.649 
682 0.0016 0.0016 0 -0.000522564 -0.000522564 2.45396e-05 5.22564 799.589 1410.05 
722 0.0034 0.0034 0 -0.000951928 -0.000951928 -5.84733e-05 9.51928 708.872 1102.33 
762 0.0022 0.0022 0 -0.000790582 -0.000790582 -0.000122259 7.90582 697.561 763.404 
802 0.0022 0.0022 0 -0.000660231 -0.000660231 -7.45402e-05 6.60231 -660.144 -659.172 
842 0.0036 0.0036 0 -0.00103374 -0.00103374 9.81795e-06 10.3374 1286.07 1505.74 
882 0.0026 0.0026 0 -0.000661342 -0.000661342 -0.000111509 6.61342 110.751 -222.844 
922 0.0024 0.0024 0 -0.000761747 -0.000761747 1.14882e-05 7.61747 440.012 568.526 
962 0 0 0 0 0 0 0 0 0 
1002 0.0112 0.0112 0 0.00055721 0.00055721 -7.07243e-05 37.572 3183.08 4357.66 
1042 0.0116 0.0116 0 0.00103291 0.00103291 0.000136938 37.8208 4295.79 5005.02 
1082 0.0126 0.0126 0 0.00104208 0.00104208 -0.000230167 42.9564 6667.93 9263.06 
1122 0.015 0.015 0 0.0007822 0.0007822 -0.000127036 53.9711 5459.12 8302.16 
1162 0.0128 0.0128 0 0.00123998 0.00123998 4.64729e-06 41.0819 4327.47 4656.97 
1202 0.0134 0.0134 0 0.0011141 0.0011141 8.27585e-05 42.29 6258.87 9083.15 
1242 0.0136 0.0136 0 0.00154263 0.00154263 -0.000477305 45.4353 9277.95 11318 
3 0.0022 0.0022 0 0.000739166 0.000739166 -9.61852e-05 79.2953 8543.91 10711.4 
43 0.1204 0.1204 0 0.0393957 0.0393957 -0.000276219 393.957 48123.2 69402.6 
83 0.131 0.131 0 0.043744 0.043744 -0.000604814 437.44 54481 76532.8 
123 0.1398 0.1398 0 0.0453927 0.0453927 7.56875e-06 453.927 49454.9 65687 
163 0.1374 0.1374 0 0.0432465 0.0432465 0.00129717 432.465 41946.8 58434.5 
203 0.1392 0.1392 0 0.0442357 0.0442357 5.24533e-05 442.357 47733.2 68410.4 
243 0.1276 0.1276 0 0.0407469 0.0407469 -0.000108921 407.469 48536.8 74171.2 
283 0.1266 0.1266 0 0.0415983 0.0415983 -0.00131898 415.983 50969.6 70890.1 
323 0.004 0.004 0 0.00146316 0.00146316 0.000114745 141.416 41751 48348.8 
363 0.0118 0.0118 0 0.00138459 0.00138459 -0.000428433 41.0099 7283.13 8951.43 
403 0.0148 0.0148 0 0.00106326 0.00106326 -0.000205964 45.2241 4968.39 7141.82 
443 0.0132 0.0132 0 0.00105779 0.00105779 2.45518e-05 41.8351 4988.55 6884.3 
483 0.018 0.018 0 0.00113338 0.00113338 -0.000607649 57.3207 10143.9 12133.3 
523 0.0164 0.0164 0 0.00134699 0.00134699 -0.000322583 53.7769 6828.07 8946.89 
563 0.0142 0.0142 0 0.000563557 0.000563557 -0.000315932 46.6595 5266.06 5995.03 
603 0.01 0.01 0 0.000417917 0.000417917 -2.08087e-05 31.2085 2339 4633.33 
643 0.0004 0.0004 0 -2.58069e-05 -2.58069e-05 6.61693e-06 12.7664 1800.71 4141.23 
683 0.0014 0.0014 0 -0.000289411 -0.000289411 -1.61224e-05 2.89411 96.9983 375.504 
723 0.003 0.003 0 -0.000891233 -0.000891233 8.70535e-05 8.91233 721.643 929.131 
763 0.0032 0.0032 0 -0.000941713 -0.000941713 -7.23875e-05 9.41713 167.477 1388.98 
803 0.003 0.003 0 -0.000919004 -0.000919004 -7.37895e-05 9.19004 424.101 578.168 
843 0.0034 0.0034 0 -0.00123373 -0.00123373 8.41321e-05 12.3373 626.201 777.453 
883 0.0038 0.0038 0 -0.000951654 -0.000951654 4.87139e-05 9.51654 636.522 1203.72 
923 0.0014 0.0014 0 -0.000488146 -0.000488146 1.09638e-05 4.88146 15.6259 352.602 
963 0.0002 0.0002 0 4.84251e-06 4.84251e-06 1.3214e-05 2.08337 528.15 -8.70741 
1003 0.0154 0.0154 0 0.00108118 0.00108118 -0.000334293 48.4989 4729.91 5952.75 
1043 0.0158 0.0158 0 0.000661309 0.000661309 -0.000110737 50.8885 5675.49 6498.2 
1083 0.0146 0.0146 0 0.000740733 0.000740733 -0.000129348 51.5235 5422.47 6797.44 
1123 0.0142 0.0142 0 0.000565155 0.000565155 6.52666e-05 47.2358 3742.91 5652.26 
1163 0.0126 0.0126 0 0.00134349 0.00134349 7.85463e-05 45.4039 6797.59 8117.7 
1203 0.0142 0.0142 0 0.00131608 0.00131608 -0.000252547 45.4663 7712.74 9350.29 
1243 0.0128 0.0128 0 0.00163015 0.00163015 0.000118462 43.0184 8172.22 8634 
4 0.002 0.002 0 0.000488482 0.000488482 -4.10986e-06 69.1203 6207.38 12763.9 
44 0.1262 0.1262 0 0.0414811 0.0414811 0.000666867 414.811 64465.4 82967.3 
84 0.1276 0.1276 0 0.0420301 0.0420301 -0.000271931 420.301 55357.7 74331.3 
124 0.145 0.145 0 0.0474417 0.0474417 0.000328373 474.417 54656 73760 
164 0.1286 0.1286 0 0.0426098 0.0426098 -0.000281298 426.098 33463.6 47560.2 
204 0.1312 0.1312 0 0.0409563 0.0409563 2.95732e-05 409.563 42407.6 59867.9 
244 0.1366 0.1366 0 0.0443369 0.0443369 -0.000311474 443.369 49317.9 68640.8 
284 0.1252 0.1252 0 0.0418702 0.0418702 -0.00141882 418.702 59018.2 70670.3 
324 0.0042 0.0042 0 0.00165274 0.00165274 2.36191e-05 173.43 28084.1 33070.7 
364 0.0136 0.0136 0 0.00126731 0.00126731 -2.57859e-05 45.326 5768.17 9071.52 
404 0.0136 0.0136 0 0.00139406 0.00139406 0.000195692 42.4726 9702.95 11550.5 
444 0.0148 0.0148 0 0.00076873 0.00076873 -0.000336557 50.2344 7276.62 9275.37 
484 0.0134 0.0134 0 0.00106326 0.00106326 -1.49994e-05 43.9751 7436.22 10033.4 
524 0.0186 0.0186 0 0.00109958 0.00109958 -0.000457336 61.2879 4758.6 4052.6 
564 0.0136 0.0136 0 0.00061901 0.00061901 -0.000473714 42.1286 3367.74 5188.33 
604 0.0132 0.0132 0 0.000591552 0.000591552 3.45541e-05 43.5676 3871.11 6668.4 
644 0.0004 0.0004 0 -3.38676e-05 -3.38676e-05 -7.69399e-06 5.43599 120.065 -725.609 
684 0.0008 0.0008 0 -0.000153534 -0.000153534 0.00011938 1.53534 -79.7654 810.851 
724 0.0022 0.0022 0 -0.000647216 -0.000647216 -4.89487e-06 6.47216 548.367 979.086 
764 0.0028 0.0028 0 -0.00103574 -0.00103574 -7.13061e-05 10.3574 -56.7331 236.034 
804 0.0018 0.0018 0 -0.000509659 -0.000509659 7.85403e-06 5.09659 342.082 511.35 
844 0.0026 0.0026 0 -0.000746811 -0.000746811 1.25639e-05 7.46811 704.636 1450.45 
884 0.0028 0.0028 0 -0.000691492 -0.000691492 -0.000126656 6.91492 339.482 -497.085 
924 0.002 0.002 0 -0.00052878 -0.00052878 6.29262e-05 5.2878 1304.34 1497.53 
964 0.0006 0.0006 0 -2.93371e-06 -2.93371e-06 7.78758e-05 17.0622 2151.82 2085.91 
1004 0.014 0.014 0 0.00105821 0.00105821 -0.000188528 45.0936 3239.3 4918.04 
1044 0.0122 0.0122 0 0.000730061 0.000730061 -0.000183619 39.1503 3163.16 4772.18 
1084 0.013 0.013 0 0.00123924 0.00123924 0.00029092 42.8146 7106.89 8013.66 
1124 0.016 0.016 0 0.00061452 0.00061452 -9.75853e-05 52.6883 7180.8 9894.74 
1164 0.0154 0.0154 0 0.00142843 0.00142843 -0.000534503 53.7258 9884.23 12123.3 
1204 0.0134 0.0134 0 0.00137332 0.00137332 -0.000256675 42.1193 9627.68 11839.7 
1244 0.0142 0.0142 0 0.0019305 0.0019305 -5.27391e-05 46.7035 9559.87 12989.7 
5 0.004 0.004 0 0.000863828 0.000863828 -4.85106e-05 122.371 13606.5 21880.7 
45 0.112 0.112 0 0.0373057 0.0373057 -1.52026e-06 373.057 51851.8 66359.8 
85 0.1302 0.1302 0 0.0435028 0.0435028 0.000907008 435.028 51155.7 67672.9 
125 0.1444 0.1444 0 0.0463125 0.0463125 -0.000504925 463.125 51702.8 69016.5 
165 0.1258 0.1258 0 0.0405039 0.0405039 0.000291482 405.039 40047.6 54716.4 
205 0.123 0.123 0 0.0405072 0.0405072 -0.00101122 405.072 45911.3 61305.9 
245 0.1256 0.1256 0 0.0417348 0.0417348 -0.00141689 417.348 45096.1 73581 
285 0.1068 0.1068 0 0.0367721 0.0367721 0.00111824 367.721 49338.2 70398.4 
325 0.003 0.003 0 0.00108167 0.00108167 -4.53186e-06 108.729 28314.7 34269.6 
365 0.0118 0.0118 0 0.0019608 0.0019608 0.000322123 40.5743 11624.6 13808.6 
405 0.0144 0.0144 0 0.00190712 0.00190712 -0.000277206 44.7639 8885.83 13058.7 
445 0.014 0.014 0 0.000812924 0.000812924 -0.000213526 45.3604 3404.48 5476.38 
485 0.0124 0.0124 0 0.000799313 0.000799313 4.88729e-05 37.1067 3849.45 5413.74 
525 0.0142 0.0142 0 0.000465027 0.000465027 0.000468358 50.0009 6576.62 7916.45 
565 0.0144 0.0144 0 0.00087623 0.00087623 0.000327214 46.3068 3268.5 3598.24 
605 0.012 0.012 0 0.000583233 0.000583233 -0.000445954 38.5749 5085.65 7949.08 
645 0.0008 0.0008 0 -0.000165827 -0.000165827 -2.92369e-06 20.3352 -347.21 -3847.23 
685 0.0018 0.0018 0 -0.000470823 -0.000470823 2.29377e-05 4.70823 -590.511 -377.149 
725 0.0026 0.0026 0 -0.000870259 -0.000870259 5.35842e-05 8.70259 1248.04 1171.8 
765 0.0038 0.0038 0 -0.0012031 -0.0012031 -1.76956e-05 12.031 1204.63 1251.88 
805 0.0034 0.0034 0 -0.00108734 -0.00108734 -6.19572e-05 10.8734 497.872 435.054 
845 0.0036 0.0036 0 -0.00101183 -0.00101183 0.000183996 10.1183 444.471 755.776 
885 0.0026 0.0026 0 -0.000829741 -0.000829741 9.30086e-05 8.29741 796.439 1549.62 
925 0.0024 0.0024 0 -0.000624254 -0.000624254 2.84632e-05 6.24254 -657.692 78.1261 
965 0.0002 0.0002 0 -2.7075e-05 -2.7075e-05 2.80302e-05 6.64451 121.334 -66.3907 
1005 0.0114 0.0114 0 0.000268818 0.000268818 -0.00020495 34.6677 3327.73 3680.66 
1045 0.0168 0.0168 0 0.000662149 0.000662149 0.000327026 50.3764 6464.55 9240.59 
1085 0.0152 0.0152 0 0.000994363 0.000994363 -0.000259881 47.267 5479.37 5399.32 
1125 0.0158 0.0158 0 0.000700574 0.000700574 0.000319785 49.2292 6919.17 10447.7 
1165 0.0132 0.0132 0 0.000900878 0.000900878 -0.000351266 42.5204 6652.92 7583.05 
1205 0.0162 0.0162 0 0.00140359 0.00140359 0.000153206 53.8529 9190.11 12580.7 
1245 0.0122 0.0122 0 0.00157002 0.00157002 0.000378306 40.0594 7227.03 8553.41 
6 0.0036 0.0036 0 0.00107534 0.00107534 0.000296724 110.008 23302.6 31454.8 
46 0.1106 0.1106 0 0.0381421 0.0381421 -0.000733169 381.421 48760.1 66447.5 
86 0.124 0.124 0 0.0412958 0.0412958 0.000546223 412.958 48171.3 62907.4 
126 0.1304 0.1304 0 0.0420954 0.0420954 -0.000109423 420.954 47936.9 63197.2 
166 0.1444 0.1444 0 0.0468426 0.0468426 -0.000174018 468.426 42432 61635.9 
206 0.1336 0.1336 0 0.0443052 0.0443052 -0.000535139 443.052 52533.7 71253.8 
246 0.1328 0.1328 0 0.0443721 0.0443721 -0.000421155 443.721 53970.3 76082 
286 0.1116 0.1116 0 0.0362615 0.0362615 -0.000722664 362.615 51396.8 70662.9 
326 0.003 0.003 0 0.00068715 0.00068715 0.000218607 90.9738 11001.3 15600.2 
366 0.0116 0.0116 0 0.00133789 0.00133789 -2.37836e-05 34.763 7699.31 9926.94 
406 0.017 0.017 0 0.00163281 0.00163281 -0.000385683 56.6382 6187.43 9957.33 
446 0.0128 0.0128 0 0.00112818 0.00112818 0.000320916 40.0562 5895.98 8396.46 
486 0.0168 0.0168 0 0.00123523 0.00123523 -0.000247631 57.0875 6884.55 8337.61 
526 0.0146 0.0146 0 0.000936525 0.000936525 -0.000125652 46.5068 3262.22 5330.14 
566 0.0122 0.0122 0 0.00108579 0.00108579 -0.000251278 38.2132 3802.69 5507.37 
606 0.0108 0.0108 0 0.000308891 0.000308891 -3.13527e-05 36.9844 5809.4 6749.31 
646 0 0 0 0 0 0 0 0 0 
686 0.0012 0.0012 0 -0.000403562 -0.000403562 -7.1874e-05 4.03562 29.0342 76.735 
726 0.0032 0.0032 0 -0.000940828 -0.000940828 -4.17741e-05 9.40828 762.899 1141.99 
766 0.0026 0.0026 0 -0.000772354 -0.000772354 5.50482e-06 7.72354 100.609 791.554 
806 0.0034 0.0034 0 -0.00121542 -0.00121542 8.17724e-05 12.1542 -165.896 305.38 
846 0.0028 0.0028 0 -0.000754048 -0.000754048 6.19625e-05 7.54048 -385.397 -35.8647 
886 0.0036 0.0036 0 -0.00113004 -0.00113004 0.000133396 11.3004 885.814 533.201 
926 0.002 0.002 0 -0.000655149 -0.000655149 2.41872e-05 6.55149 -189.394 218.083 
966 0.0004 0.0004 0 9.03593e-06 9.03593e-06 -0.000101834 10.1878 3266.67 3260.91 
1006 0.0114 0.0114 0 0.000856596 0.000856596 0.000240581 32.6331 3757.71 4825.21 
1046 0.0096 0.0096 0 0.00062997 0.00062997 -0.00024047 31.8933 2854.44 5759.26 
1086 0.0128 0.0128 0 0.000786031 0.000786031 0.000237642 40.9134 3391.77 3825.28 
1126 0.0144 0.0144 0 0.0015267 0.0015267 0.000474839 50.467 3778.7 5039.58 
1166 0.0158 0.0158 0 0.0014593 0.0014593 -0.000141148 50.1777 8140.86 10309.5 
1206 0.0142 0.0142 0 0.00108952 0.00108952 4.58767e-05 44.0369 7272.18 9062.27 
1246 0.0154 0.0154 0 0.00179988 0.00179988 0.000154032 53.9299 10171 12852 
7 0.003 0.003 0 0.000874344 0.000874344 -0.000208705 95.1621 10335.3 18936.7 
47 0.1146 0.1146 0 0.0387486 0.0387486 0.000441966 387.486 49159.6 60588 
87 0.1286 0.1286 0 0.0413456 0.0413456 0.000857909 413.456 52982.1 71859.6 
127 0.123 0.123 0 0.0407818 0.0407818 -0.000576753 407.818 36235.8 52111.4 
167 0.1408 0.1408 0 0.0455957 0.0455957 -0.000428129 455.957 54182.4 71640.8 
207 0.1312 0.1312 0 0.0431334 0.0431334 -0.000957538 431.334 47556 62748 
247 0.1184 0.1184 0 0.0385061 0.0385061 0.000301894 385.061 39890.5 56315.1 
287 0.1238 0.1238 0 0.0411884 0.0411884 -0.00041455 411.884 57675.4 74895.2 
327 0.0018 0.0018 0 0.000456957 0.000456957 -0.000112625 67.9499 8473.08 11501 
367 0.0128 0.0128 0 0.00126753 0.00126753 -1.18125e-05 41.8708 7503.81 9699.45 
407 0.0156 0.0156 0 0.00122416 0.00122416 0.000342327 49.3115 10516.5 12083.7 
447 0.0144 0.0144 0 0.00107465 0.00107465 -0.000120149 44.0554 5793.44 7551.8 
487 0.0136 0.0136 0 0.000790175 0.000790175 -3.06561e-05 44.7486 5905.72 6120.46 
527 0.014 0.014 0 0.000974898 0.000974898 -0.000137063 48.9308 6276.93 9290.48 
567 0.0112 0.0112 0 0.000585139 0.000585139 0.000387961 37.2277 3697.23 4305.83 
607 0.0114 0.0114 0 0.00108049 0.00108049 -0.000253008 34.042 1425.06 3687.23 
647 0.0006 0.0006 0 -5.82644e-05 -5.82644e-05 9.96943e-05 13.0077 582.125 842.299 
687 0.002 0.002 0 -0.000688939 -0.000688939 1.87818e-05 6.88939 732.918 471.745 
727 0.0038 0.0038 0 -0.00119318 -0.00119318 0.000279662 11.9318 963.007 1477.55 
767 0.0046 0.0046 0 -0.0015483 -0.0015483 8.40623e-05 15.483 1006.15 1611.96 
807 0.0042 0.0042 0 -0.00150517 -0.00150517 0.000158883 15.0517 1845.3 2119.88 
847 0.0026 0.0026 0 -0.00074786 -0.00074786 4.06439e-06 7.4786 268.481 197.537 
887 0.0044 0.0044 0 -0.00127595 -0.00127595 0.000150118 12.7595 1095.37 1370.09 
927 0.0024 0.0024 0 -0.000735657 -0.000735657 5.41132e-05 7.35657 -81.8937 132.822 
967 0.0002 0.0002 0 6.4694e-06 6.4694e-06 -9.21862e-06 7.36321 -241.621 609.856 
1007 0.0134 0.0134 0 0.00115732 0.00115732 -7.9998e-05 39.5832 5215.37 5679.53 
1047 0.012 0.012 0 0.000233278 0.000233278 9.68886e-06 36.5655 2021.65 1846.48 
1087 0.014 0.014 0 0.00100813 0.00100813 0.000308529 44.6279 4734.54 8397.64 
1127 0.013 0.013 0 0.00116413 0.00116413 0.000216698 42.9215 4482.35 6379.37 
1167 0.0156 0.0156 0 0.0012402 0.0012402 0.00023911 54.3439 5920.46 8975.56 
1207 0.015 0.015 0 0.00154151 0.00154151 9.18624e-05 51.458 11217.1 11334.9 
1247 0.014 0.014 0 0.00095308 0.00095308 0.000663554 45.8069 5915.85 10291.3 
8 0.004 0.004 0 0.00123786 0.00123786 -0.000405008 127.546 32056.9 34993.1 
48 0.1146 0.1146 0 0.0391151 0.0391151 -0.000350388 391.151 46528.8 69088.5 
88 0.1228 0.1228 0 0.0399754 0.0399754 -0.00101903 399.754 43047.9 63931.3 
128 0.1438 0.1438 0 0.0461804 0.0461804 -7.73502e-05 461.804 50097.2 72548.3 
168 0.135 0.135 0 0.0435411 0.0435411 -0.000227661 435.411 46502.4 64687.6 
208 0.1242 0.1242 0 0.0406969 0.0406969 -0.00108011 406.969 49906.6 68432.6 
248 0.1226 0.1226 0 0.0393859 0.0393859 0.000462168 393.859 44888.5 63735.6 
288 0.1184 0.1184 0 0.0388107 0.0388107 0.000277849 388.107 53583.2 70044.9 
328 0.0028 0.0028 0 0.000884078 0.000884078 -8.32218e-05 93.3783 15384.6 24027.8 
368 0.0152 0.0152 0 0.0011073 0.0011073 -0.000188392 46.4826 8197.72 10970.2 
408 0.016 0.016 0 0.00110607 0.00110607 0.000119656 56.3568 8059.14 9406.77 
448 0.0186 0.0186 0 0.00164961 0.00164961 -0.000371005 58.2266 8661.85 9984.44 
488 0.0136 0.0136 0 0.00127481 0.00127481 0.000173921 41.6169 6680.82 7807.2 
528 0.0148 0.0148 0 0.000750728 0.000750728 -0.000185 47.8441 7023.58 8829.51 
568 0.0146 0.0146 0 0.000969459 0.000969459 -2.52917e-05 45.8419 5879.03 7269.85 
608 0.011 0.011 0 0.000675447 0.000675447 -0.000334838 32.8354 3384.37 5061.68 
648 0 0 0 0 0 0 0 0 0 
688 0.0018 0.0018 0 -0.000629882 -0.000629882 4.20365e-06 6.29882 280.942 188.2 
728 0.0024 0.0024 0 -0.000648278 -0.000648278 -0.000137663 6.48278 544.02 349.287 
768 0.0032 0.0032 0 -0.000980457 -0.000980457 -9.39703e-05 9.80457 969.988 1759.97 
808 0.0024 0.0024 0 -0.000712137 -0.000712137 -0.000156269 7.12137 94.0076 419.472 
848 0.0034 0.0034 0 -0.00115917 -0.00115917 -2.54673e-05 11.5917 835.411 1676.32 
888 0.0034 0.0034 0 -0.00111422 -0.00111422 6.85099e-05 11.1422 493.662 978.401 
928 0.0016 0.0016 0 -0.000504044 -0.000504044 -3.7679e-05 5.04044 -172.383 -330.548 
968 0.0006 0.0006 0 4.17028e-05 4.17028e-05 1.78173e-05 21.9226 6104.13 10998.7 
1008 0.0138 0.0138 0 0.000617276 0.000617276 -0.00020356 42.6058 4690.33 5991.29 
1048 0.0146 0.0146 0 0.000641896 0.000641896 -0.000301952 41.9229 5582.99 6798.35 
1088 0.017 0.017 0 0.000761482 0.000761482 -4.37442e-05 52.9214 3052.35 5625.72 
1128 0.0122 0.0122 0 0.000861624 0.000861624 -0.000314862 41.2004 5309.73 7602.82 
1168 0.0188 0.0188 0 0.00160001 0.00160001 -0.00022364 62.2909 11451.1 13735.7 
1208 0.0158 0.0158 0 0.00137827 0.00137827 0.000120001 51.5556 5785.44 9913.31 
1248 0.0126 0.0126 0 0.000640538 0.000640538 0.000205572 40.108 7180.66 10131.9 
9 0.0036 0.0036 0 0.00123439 0.00123439 0.000119531 116.843 26394.8 26334.6 
49 0.1128 0.1128 0 0.0388726 0.0388726 0.000179351 388.726 45812.8 66559 
89 0.1282 0.1282 0 0.042656 0.042656 -0.00101956 426.56 47592.1 63636.1 
129 0.1378 0.1378 0 0.0439996 0.0439996 -0.00109909 439.996 44168.2 60951.4 
169 0.1184 0.1184 0 0.0391112 0.0391112 -0.00155615 391.112 42353.7 62342.4 
209 0.134 0.134 0 0.0434586 0.0434586 -0.000356842 434.586 47140.2 68296.6 
249 0.1168 0.1168 0 0.0387394 0.0387394 -4.54566e-05 387.394 51955.8 67634.5 
289 0.1074 0.1074 0 0.0358615 0.0358615 -0.000636893 358.615 50500.9 68284.4 
329 0.002 0.002 0 0.000468252 0.000468252 -3.96382e-05 84.0496 27536.8 35229.1 
369 0.0144 0.0144 0 0.00134593 0.00134593 -0.000305508 44.0758 5865.16 8971.06 
409 0.0148 0.0148 0 0.00129987 0.00129987 -0.000320067 46.0992 7497.62 9835.16 
449 0.0174 0.0174 0 0.000994931 0.000994931 0.000238724 55.533 7145.5 8648.71 
489 0.0168 0.0168 0 0.00157915 0.00157915 0.000565073 55.5485 8056.04 9648.83 
529 0.0122 0.0122 0 0.00099772 0.00099772 -0.000286229 39.3129 5644.85 6918.28 
569 0.0114 0.0114 0 0.000730401 0.000730401 -0.00017338 37.3587 4138.69 6049.01 
609 0.014 0.014 0 0.00101391 0.00101391 4.21908e-05 46.0729 3332.63 4056.4 
649 0.0002 0.0002 0 -5.04322e-05 -5.04322e-05 4.51458e-05 4.74444 259.663 4300.1 
689 0.002 0.002 0 -0.000547279 -0.000547279 -0.000121267 5.47279 311.451 -210.46 
729 0.0024 0.0024 0 -0.000731822 -0.000731822 -1.77312e-05 7.31822 834.586 517.164 
769 0.0036 0.0036 0 -0.00122519 -0.00122519 0.0001585 12.2519 -206.688 224.759 
809 0.0026 0.0026 0 -0.00100686 -0.00100686 -0.000110498 10.0686 1032.08 1303.34 
849 0.0034 0.0034 0 -0.00114248 -0.00114248 -3.58277e-05 11.4248 1507.92 1808.63 
889 0.002 0.002 0 -0.0005615 -0.0005615 4.87286e-05 5.615 216.684 1005.99 
929 0.001 0.001 0 -0.000322038 -0.000322038 -6.70291e-05 3.22038 852.122 620.196 
969 0.0014 0.0014 0 8.03277e-05 8.03277e-05 6.08587e-05 61.4039 11196.9 13123.8 
1009 0.0136 0.0136 0 0.000852093 0.000852093 0.000162346 43.017 4063.69 4335.87 
1049 0.0094 0.0094 0 0.000389093 0.000389093 -0.000174637 30.9519 1117.21 1569.76 
1089 0.0112 0.0112 0 0.000429965 0.000429965 -9.87006e-05 37.1957 5101.14 5973.15 
1129 0.0122 0.0122 0 0.00118204 0.00118204 6.76525e-05 41.8561 6003.65 7245.19 
1169 0.0152 0.0152 0 0.00097608 0.00097608 0.000381345 50.5611 8095.55 9551.31 
1209 0.0132 0.0132 0 0.00131469 0.00131469 -7.35858e-05 44.4123 6658.49 7706.74 
1249 0.0118 0.0118 0 0.00107061 0.00107061 0.000278931 40.2804 8776.9 10716.6 
10 0.0048 0.0048 0 0.00178469 0.00178469 -1.48146e-05 168.328 39149.5 45180.9 
50 0.1304 0.1304 0 0.0421666 0.0421666 0.000572827 421.666 64731.9 79616.4 
90 0.1316 0.1316 0 0.0428759 0.0428759 -0.00013544 428.759 50711.8 67924.2 
130 0.1286 0.1286 0 0.0413446 0.0413446 -0.000175359 413.446 45306 62935 
170 0.129 0.129 0 0.042446 0.042446 -0.000256793 424.46 43990 59268.7 
210 0.1474 0.1474 0 0.0476808 0.0476808 -0.000373101 476.808 53512.4 70679.5 
250 0.124 0.124 0 0.0401966 0.0401966 0.000988899 401.966 42416.6 57002.6 
290 0.122 0.122 0 0.0423007 0.0423007 -0.000585762 423.007 56988.3 84512.3 
330 0.0022 0.0022 0 0.000583882 0.000583882 2.61591e-05 79.723 23518.7 35177.6 
370 0.0132 0.0132 0 0.00110856 0.00110856 0.00012451 40.4431 8104.91 9216.31 
410 0.013 0.013 0 0.00115043 0.00115043 0.000161399 43.2847 4005.91 5913.33 
450 0.0154 0.0154 0 0.00137585 0.00137585 -0.000194418 45.7408 4767.65 7026.97 
490 0.0144 0.0144 0 0.000512127 0.000512127 -0.000180337 46.3662 4182.48 5041.58 
530 0.0134 0.0134 0 0.000733539 0.000733539 -0.000151834 41.6135 5637.18 7004.96 
570 0.0134 0.0134 0 8.8168e-05 8.8168e-05 -0.000193976 41.9013 390.91 -610.756 
610 0.012 0.012 0 0.00117299 0.00117299 -0.000323881 35.9331 5718.97 9567.93 
650 0 0 0 0 0 0 0 0 0 
690 0.002 0.002 0 -0.000640243 -0.000640243 0.000163277 6.40243 -642.521 -488.361 
730 0.0026 0.0026 0 -0.00100269 -0.00100269 4.65293e-05 10.0269 343.894 87.2345 
770 0.0024 0.0024 0 -0.000718171 -0.000718171 -0.00015111 7.18171 136.597 379.113 
810 0.0024 0.0024 0 -0.000971064 -0.000971064 3.93074e-05 9.71064 127.352 587.24 
850 0.0026 0.0026 0 -0.000814426 -0.000814426 0.000241919 8.14426 602.904 735.648 
890 0.0036 0.0036 0 -0.000942819 -0.000942819 4.69385e-05 9.42819 849.708 1445.48 
930 0.0008 0.0008 0 -0.000177379 -0.000177379 6.26793e-05 1.77379 27.6032 44.4095 
970 0.0026 0.0026 0 4.38845e-05 4.38845e-05 -4.10329e-06 36.6141 2128.97 3140.09 
1010 0.0158 0.0158 0 0.000367843 0.000367843 1.77102e-07 50.2945 4952.43 6035.04 
1050 0.0114 0.0114 0 0.00054491 0.00054491 -0.00010689 39.8866 5505.52 8177.96 
1090 0.0154 0.0154 0 0.000471265 0.000471265 8.89863e-05 51.4296 5415.39 6103.03 
1130 0.0124 0.0124 0 0.00126091 0.00126091 -0.000435169 36.3238 6160.62 7743.76 
1170 0.0174 0.0174 0 0.00155126 0.00155126 0.00040297 57.6107 7871.17 10018.8 
1210 0.0114 0.0114 0 0.00114392 0.00114392 -0.00027684 35.6132 6246.81 8163.46 
1250 0.0146 0.0146 0 0.00187173 0.00187173 0.000575698 43.8126 7813.16 10005.8 
11 0.0064 0.0064 0 0.00242075 0.00242075 -0.000340085 234.054 38126 59891.5 
51 0.128 0.128 0 0.0429079 0.0429079 0.000441914 429.079 55731.9 76940.2 
91 0.137 0.137 0 0.0440802 0.0440802 0.00116086 440.802 56734.7 81065.3 
131 0.1332 0.1332 0 0.0439869 0.0439869 0.0014944 439.869 43606.7 60443 
171 0.1406 0.1406 0 0.0449039 0.0449039 0.000625187 449.039 47131.9 61136.4 
211 0.143 0.143 0 0.0466691 0.0466691 -0.000103812 466.691 55755.1 77474.7 
251 0.1262 0.1262 0 0.042688 0.042688 -0.000616969 426.88 52572.9 75585.4 
291 0.1218 0.1218 0 0.0408758 0.0408758 0.000909956 408.758 55041.9 82057.6 
331 0.0018 0.0018 0 0.000418967 0.000418967 0.000134165 64.7925 9849.6 15335.9 
371 0.015 0.015 0 0.00158621 0.00158621 -0.000183143 46.0059 7274.58 10849 
411 0.0136 0.0136 0 0.000793718 0.000793718 -0.000160859 47.5987 5006.96 6598.88 
451 0.0118 0.0118 0 0.000706529 0.000706529 -4.96229e-05 39.5423 5059.28 7317.03 
491 0.0152 0.0152 0 0.000812432 0.000812432 -2.33695e-05 50.295 8230.15 9663.55 
531 0.0134 0.0134 0 0.0004085 0.0004085 -0.000429372 44.4398 4797.89 6864.21 
571 0.0104 0.0104 0 4.11591e-05 4.11591e-05 0.000125786 30.8159 1677.53 3118.08 
611 0.0112 0.0112 0 0.000897801 0.000897801 -0.000108985 40.0168 3411.41 5307.66 
651 0.0002 0.0002 0 -3.2758e-05 -3.2758e-05 4.45364e-05 3.38997 2091.59 2247.84 
691 0.0028 0.0028 0 -0.000885993 -0.000885993 9.44963e-06 8.85993 231.907 503.381 
731 0.0028 0.0028 0 -0.000984619 -0.000984619 -8.31922e-05 9.84619 264.638 266.74 
771 0.0024 0.0024 0 -0.000724665 -0.000724665 7.26452e-05 7.24665 -419.088 296.252 
811 0.005 0.005 0 -0.0015819 -0.0015819 -8.08769e-05 15.819 973.418 1160.45 
851 0.0022 0.0022 0 -0.000635354 -0.000635354 -9.41975e-05 6.35354 886.665 1564.28 
891 0.0028 0.0028 0 -0.000668744 -0.000668744 -0.000122981 6.68744 405.816 540.75 
931 0.0028 0.0028 0 -0.000817234 -0.000817234 0.000178942 8.17234 254.228 877.712 
971 0.0022 0.0022 0 0.000267932 0.000267932 0.000210719 25.8832 154.873 1295.57 
1011 0.0122 0.0122 0 0.000647271 0.000647271 -0.000371829 36.0643 3166.22 4746.59 
1051 0.014 0.014 0 0.000606483 0.000606483 0.000241335 45.0136 5599.39 8013.03 
1091 0.0126 0.0126 0 0.000525004 0.000525004 0.000241337 36.455 2446.16 3622.09 
1131 0.0162 0.0162 0 0.000762546 0.000762546 0.00011555 57.3395 7082.8 9324.51 
1171 0.0164 0.0164 0 0.00133317 0.00133317 -0.000298433 52.4551 8010.34 12229.1 
1211 0.0146 0.0146 0 0.00133104 0.00133104 0.000388043 46.2131 6871.5 11191.9 
1251 0.0138 0.0138 0 0.00188486 0.00188486 -0.000332584 46.6723 12227.5 14661.1 
12 0.0058 0.0058 0 0.00199218 0.00199218 5.12814e-05 195.148 45985.3 57459 
52 0.1304 0.1304 0 0.0440039 0.0440039 0.00087706 440.039 61873.5 83848.5 
92 0.1326 0.1326 0 0.0440236 0.0440236 -0.000643903 440.236 45763.3 63881.6 
132 0.1336 0.1336 0 0.0449032 0.0449032 0.000519598 449.032 47180.1 65353 
172 0.1502 0.1502 0 0.0471718 0.0471718 0.00100444 471.718 54560.9 73396.8 
212 0.1388 0.1388 0 0.0457096 0.0457096 -0.000226437 457.096 56334 76637.8 
252 0.1354 0.1354 0 0.0467581 0.0467581 0.00197819 467.581 54440.1 71824.9 
292 0.1256 0.1256 0 0.0415583 0.0415583 -4.10441e-06 415.583 54832.1 72943.1 
332 0.0012 0.0012 0 0.000317925 0.000317925 -0.000120187 30.5186 9014.93 12034 
372 0.0126 0.0126 0 0.00133478 0.00133478 0.000164684 41.5306 8118.31 8515.56 
412 0.0132 0.0132 0 0.00130417 0.00130417 -0.000254788 40.9608 6618.55 8873.41 
452 0.0126 0.0126 0 0.000984966 0.000984966 2.89557e-05 37.6554 2876.45 5154.94 
492 0.0138 0.0138 0 0.000705345 0.000705345 -0.00020199 43.7619 7243.91 10381.9 
532 0.0124 0.0124 0 0.000921902 0.000921902 0.000363875 41.4523 4508.47 5075.47 
572 0.015 0.015 0 0.00131607 0.00131607 -0.000557637 49.0682 4220.63 6733.57 
612 0.0108 0.0108 0 0.000921892 0.000921892 5.52338e-05 33.0929 4042.33 4368.59 
652 0 0 0 0 0 0 0 0 0 
692 0.0032 0.0032 0 -0.00109607 -0.00109607 -2.61695e-05 10.9607 725.051 1689.55 
732 0.0034 0.0034 0 -0.000852616 -0.000852616 8.25758e-05 8.52616 146.304 -223.064 
772 0.0038 0.0038 0 -0.00136534 -0.00136534 5.17958e-05 13.6534 1921.81 2208.25 
812 0.0036 0.0036 0 -0.00107998 -0.00107998 -0.000168063 10.7998 1069.43 1942.07 
852 0.0032 0.0032 0 -0.000868106 -0.000868106 -6.2213e-06 8.68106 1413.26 1321.7 
892 0.0022 0.0022 0 -0.00053939 -0.00053939 -0.000118106 5.3939 386.916 332.835 
932 0.0014 0.0014 0 -0.000440103 -0.000440103 -8.42848e-05 4.40103 438.082 170.542 
972 0.0044 0.0044 0 0.000524588 0.000524588 0.000132523 31.4203 4241.05 4800.1 
1012 0.012 0.012 0 0.000819301 0.000819301 -0.000163632 37.1993 4439.9 6716.66 
1052 0.013 0.013 0 0.00055798 0.00055798 3.83273e-05 41.0173 3773.03 5742.18 