ITEM: TIMESTEP
10000
ITEM: NUMBER OF SURFS
1204
ITEM: BOX BOUNDS oo rr pp
0 0.2
0 0.2
-0.5 0.5
ITEM: SURFS id f_2[1] f_2[2] f_2[3] f_2[4] f_2[5] f_2[6] f_2[7] f_2[8] f_2[9] 
1 3.0278 3.0278 0 0.00471686 0.00471686 -2.44186e-05 47.1686 13720.7 18608.1 
41 3.0984 3.0984 0 0.00427314 0.00427314 1.16178e-05 42.7314 8437.72 11846.2 
81 3.3064 3.3064 0 0.00448817 0.00448817 -1.53506e-06 44.8817 8132.94 11329.1 
121 3.3256 3.3256 0 0.00448084 0.00448084 9.66241e-06 44.8084 8101.32 11273.6 
161 3.3738 3.3738 0 0.00452604 0.00452604 -1.70838e-05 45.2604 7968.24 11142.2 
201 3.3294 3.3294 0 0.00446997 0.00446997 1.32937e-05 44.6997 7962.25 11178.6 
241 3.212 3.212 0 0.00437399 0.00437399 9.98574e-06 43.7399 8164.54 11492 
281 2.9866 2.9866 0 0.00418752 0.00418752 -4.39857e-06 41.8752 9388.72 13001.2 
321 0.366 0.366 0 0.000198042 0.000198042 -2.09373e-06 4.7864 1420.19 2104.73 
361 0.3738 0.3738 0 0.000204477 0.000204477 3.23321e-06 4.89945 1483.65 2060.27 
401 0.3636 0.3636 0 0.000202367 0.000202367 -2.62772e-06 4.90059 1494.12 2025.3 
441 0.3578 0.3578 0 0.00019451 0.00019451 -6.0329e-06 4.84313 1444.92 1948.9 
481 0.342 0.342 0 0.000190903 0.000190903 1.74221e-06 4.5358 1443.71 1910.64 
521 0.3206 0.3206 0 0.000174181 0.000174181 -3.30389e-06 4.30265 1267.99 1687.99 
561 0.3024 0.3024 0 0.000197981 0.000197981 -1.64298e-06 4.12987 1248.2 1659.48 
601 0.064 0.064 0 3.08707e-05 3.08707e-05 2.52032e-06 2.01686 683.249 919.734 
641 0.0118 0.0118 0 -1.29697e-05 -1.29697e-05 -3.35869e-07 0.129697 15.2729 25.7882 
681 0.0108 0.0108 0 -1.30081e-05 -1.30081e-05 1.59606e-07 0.130081 15.5426 32.6433 
721 0.0136 0.0136 0 -1.68088e-05 -1.68088e-05 8.8069e-07 0.168088 15.0088 29.3602 
761 0.0124 0.0124 0 -1.54609e-05 -1.54609e-05 -1.34272e-06 0.154609 18.341 38.4704 
801 0.0136 0.0136 0 -1.44534e-05 -1.44534e-05 -2.01753e-06 0.144534 22.9131 32.7651 
841 0.011 0.011 0 -1.20226e-05 -1.20226e-05 1.27758e-06 0.120226 14.552 32.8649 
881 0.0124 0.0124 0 -1.41747e-05 -1.41747e-05 1.89688e-07 0.141747 19.4265 34.3283 
921 0.2728 0.2728 0 0.00017828 0.00017828 2.44537e-06 3.68854 1195.56 1547.94 
961 0.3066 0.3066 0 0.000167448 0.000167448 -1.31008e-06 4.04426 1160.73 1567.7 
1001 0.3392 0.3392 0 0.000183655 0.000183655 3.0013e-06 4.48144 1260.4 1695.97 
1041 0.3544 0.3544 0 0.000199314 0.000199314 1.46828e-05 4.75373 1386.4 1890.43 
1081 0.3664 0.3664 0 0.000205482 0.000205482 -9.53013e-06 4.92075 1479.39 2026.23 
1121 0.378 0.378 0 0.000208769 0.000208769 5.22459e-06 5.04959 1532.85 2095.12 
1161 0.3578 0.3578 0 0.0001891 0.0001891 -1.16589e-05 4.78824 1395.54 1961.49 
1201 0.4878 0.4878 0 0.000212428 0.000212428 8.1543e-06 6.23736 1634.76 2477.17 
2 3.1158 3.1158 0 0.00483275 0.00483275 -2.61341e-05 48.3275 14009.3 18886.6 
42 3.1712 3.1712 0 0.0043567 0.0043567 1.71469e-05 43.567 8419.52 11947.5 
82 3.301 3.301 0 0.00449791 0.00449791 3.03453e-05 44.9791 8305.13 11548.3 
122 3.318 3.318 0 0.00446724 0.00446724 -3.06842e-05 44.6724 7790.03 10981.9 
162 3.3108 3.3108 0 0.00443469 0.00443469 1.09797e-05 44.3469 7731.48 10765.3 
202 3.328 3.328 0 0.00451894 0.00451894 -3.30271e-06 45.1894 8319.01 11578.7 
242 3.2382 3.2382 0 0.00440527 0.00440527 6.35511e-06 44.0527 8369.86 11802.4 
282 3.0126 3.0126 0 0.00425994 0.00425994 3.68207e-05 42.5994 9364.54 12940.1 
322 0.3538 0.3538 0 0.000190682 0.000190682 4.87504e-06 4.6792 1409.31 2030.47 
362 0.36 0.36 0 0.000201877 0.000201877 9.21161e-06 4.85527 1478.1 1991.16 
402 0.3748 0.3748 0 0.000192557 0.000192557 -6.9104e-07 5.00217 1432.87 1984.52 
442 0.3626 0.3626 0 0.000181651 0.000181651 9.15925e-07 4.81054 1404.17 1927.43 
482 0.3404 0.3404 0 0.000186238 0.000186238 3.13494e-06 4.58628 1388.74 1842.08 
522 0.3256 0.3256 0 0.000175853 0.000175853 3.6732e-06 4.31429 1240.94 1642.36 
562 0.2964 0.2964 0 0.000183786 0.000183786 -3.55504e-06 4.0041 1244.43 1630.91 
602 0.033 0.033 0 1.32555e-06 1.32555e-06 -1.03792e-06 0.878171 309.515 414.617 
642 0.0138 0.0138 0 -1.47567e-05 -1.47567e-05 1.35353e-06 0.147567 20.5129 42.8576 
682 0.0148 0.0148 0 -1.85778e-05 -1.85778e-05 -3.29655e-07 0.185778 27.1412 44.7003 
722 0.014 0.014 0 -1.63167e-05 -1.63167e-05 -1.49409e-08 0.163167 15.3296 35.0064 
762 0.0138 0.0138 0 -1.58109e-05 -1.58109e-05 -4.33656e-07 0.158109 29.0557 49.5775 
802 0.014 0.014 0 -1.42902e-05 -1.42902e-05 -6.58904e-07 0.142902 15.9195 29.7055 
842 0.0134 0.0134 0 -1.46251e-05 -1.46251e-05 -1.21169e-06 0.146251 16.7709 36.6789 
882 0.0116 0.0116 0 -1.27674e-05 -1.27674e-05 -9.33154e-07 0.127674 12.3793 19.9204 
922 0.2876 0.2876 0 0.000194663 0.000194663 -3.28963e-06 3.85178 1228.4 1590.71 
962 0.307 0.307 0 0.000186895 0.000186895 1.11662e-05 4.11476 1239.62 1634.13 
1002 0.3412 0.3412 0 0.000184548 0.000184548 4.28416e-06 4.52021 1325.77 1750.83 
1042 0.3552 0.3552 0 0.0001979 0.0001979 1.04858e-05 4.78298 1403.94 1920.42 
1082 0.37 0.37 0 0.00021479 0.00021479 -6.41906e-07 4.94016 1478.85 2033.42 
1122 0.3812 0.3812 0 0.000203339 0.000203339 -8.62525e-06 5.1668 1506.47 2118.62 
1162 0.3722 0.3722 0 0.000201173 0.000201173 5.53244e-06 4.94837 1458.64 2060.8 
1202 0.5244 0.5244 0 0.000212226 0.000212226 1.10901e-05 6.63126 1667.34 2630.26 
3 3.1704 3.1704 0 0.00492054 0.00492054 -1.4605e-05 49.2054 13845.5 18639.3 
43 3.1296 3.1296 0 0.00431031 0.00431031 -1.16258e-05 43.1031 8679.3 12036 
83 3.2648 3.2648 0 0.0044451 0.0044451 -5.62596e-07 44.451 8080.46 11449.7 
123 3.3484 3.3484 0 0.00450236 0.00450236 1.14746e-05 45.0236 8088.3 11472.5 
163 3.3508 3.3508 0 0.00450487 0.00450487 5.50679e-07 45.0487 7964.66 11169.4 
203 3.3114 3.3114 0 0.00449447 0.00449447 -1.13351e-05 44.9447 7932.32 11115.3 
243 3.2098 3.2098 0 0.00438542 0.00438542 1.40668e-05 43.8542 8265.59 11718.3 
283 3.0106 3.0106 0 0.00430387 0.00430387 1.96756e-05 43.0387 9495.9 13057.6 
323 0.3394 0.3394 0 0.000179339 0.000179339 -1.2191e-05 4.57036 1279.27 1881.29 
363 0.3854 0.3854 0 0.000211426 0.000211426 -5.47275e-06 5.10572 1560.37 2148.77 
403 0.3838 0.3838 0 0.000208088 0.000208088 1.37606e-07 5.25124 1633.1 2243.06 
443 0.3484 0.3484 0 0.000198212 0.000198212 -4.34861e-06 4.68399 1485 1962.1 
483 0.3536 0.3536 0 0.000200834 0.000200834 3.792e-06 4.80868 1455.11 1936.27 
523 0.349 0.349 0 0.000200704 0.000200704 1.29705e-05 4.70462 1453.67 1860.61 
563 0.3 0.3 0 0.000176656 0.000176656 4.17704e-06 4.09981 1213.58 1648.64 
603 0.0108 0.0108 0 -6.07531e-06 -6.07531e-06 -1.1966e-06 0.264568 34.3617 60.7675 
643 0.0104 0.0104 0 -1.08839e-05 -1.08839e-05 1.03126e-06 0.108839 13.8298 21.5929 
683 0.013 0.013 0 -1.40369e-05 -1.40369e-05 -1.28342e-06 0.140369 26.2696 41.4234 
723 0.0108 0.0108 0 -1.2877e-05 -1.2877e-05 -1.36291e-06 0.12877 17.4331 34.9863 
763 0.014 0.014 0 -1.61582e-05 -1.61582e-05 -9.55793e-07 0.161582 20.5042 41.3637 
803 0.0148 0.0148 0 -1.72741e-05 -1.72741e-05 1.95054e-06 0.172741 1.89282 26.2816 
843 0.0124 0.0124 0 -1.25785e-05 -1.25785e-05 -1.87202e-06 0.125785 24.7515 32.6584 
883 0.0114 0.0114 0 -1.11928e-05 -1.11928e-05 6.87601e-07 0.111928 8.77079 19.6906 
923 0.2794 0.2794 0 0.000185202 0.000185202 -1.39018e-05 3.75885 1222.4 1581.55 
963 0.309 0.309 0 0.000185397 0.000185397 1.77623e-06 4.10289 1278.05 1692.16 
1003 0.3424 0.3424 0 0.000165029 0.000165029 5.47278e-06 4.62873 1265.47 1691.28 
1043 0.3556 0.3556 0 0.000201267 0.000201267 5.20596e-06 4.77927 1470.98 2001.83 
1083 0.3744 0.3744 0 0.00020667 0.00020667 7.37711e-06 4.93509 1473.5 2060.98 
1123 0.3672 0.3672 0 0.000203065 0.000203065 1.80411e-07 4.93267 1452.31 2007.28 
1163 0.365 0.365 0 0.000192213 0.000192213 -1.89765e-06 4.82673 1418.6 2066.49 
1203 0.5558 0.5558 0 0.000224935 0.000224935 1.12453e-05 6.92624 1672.58 2656.04 
4 3.1736 3.1736 0 0.00491944 0.00491944 -2.39467e-06 49.1944 13699.7 18452.1 
44 3.164 3.164 0 0.00438654 0.00438654 -2.03743e-05 43.8654 8922.01 12376.6 
84 3.2458 3.2458 0 0.00438715 0.00438715 2.12477e-05 43.8715 7947.25 11077.4 
124 3.314 3.314 0 0.00445506 0.00445506 -1.02712e-05 44.5506 7708.81 10982.4 
164 3.3292 3.3292 0 0.0044626 0.0044626 1.89453e-05 44.626 7887.63 11091.7 
204 3.3154 3.3154 0 0.00448125 0.00448125 1.47342e-05 44.8125 7868.75 11135.4 
244 3.1772 3.1772 0 0.00434173 0.00434173 1.58876e-05 43.4173 8020.12 11341.4 
284 2.9822 2.9822 0 0.00420413 0.00420413 -1.97046e-05 42.0413 9112.55 12716.9 
324 0.3668 0.3668 0 0.000203699 0.000203699 7.83153e-06 4.90187 1545.03 2197.19 
364 0.3722 0.3722 0 0.000206013 0.000206013 -7.81472e-06 5.0266 1483.23 2066.03 
404 0.3694 0.3694 0 0.000207447 0.000207447 8.99181e-06 4.95894 1528.21 2077.55 
444 0.366 0.366 0 0.00020442 0.00020442 -3.36865e-06 5.00481 1489.47 1964.56 
484 0.3312 0.3312 0 0.000186942 0.000186942 -6.77673e-06 4.44361 1399.72 1880.06 
524 0.3196 0.3196 0 0.000184909 0.000184909 -3.23734e-06 4.29717 1325.15 1702.11 
564 0.3082 0.3082 0 0.000194801 0.000194801 -2.25568e-06 4.1103 1353.31 1743.17 
604 0.0046 0.0046 0 -3.81979e-06 -3.81979e-06 8.77594e-08 0.0978396 25.9871 37.8551 
644 0.011 0.011 0 -1.07027e-05 -1.07027e-05 -6.6355e-07 0.107027 18.6558 42.8927 
684 0.0126 0.0126 0 -1.55066e-05 -1.55066e-05 -1.09417e-06 0.155066 24.545 38.0262 
724 0.0116 0.0116 0 -1.20811e-05 -1.20811e-05 1.52826e-07 0.120811 9.95067 26.1079 
764 0.0112 0.0112 0 -1.22635e-05 -1.22635e-05 -1.90696e-07 0.122635 10.1398 30.0509 
804 0.0132 0.0132 0 -1.46857e-05 -1.46857e-05 4.81113e-08 0.146857 12.8533 19.0081 
844 0.0102 0.0102 0 -1.16271e-05 -1.16271e-05 1.64603e-06 0.116271 13.6004 25.9113 
884 0.0106 0.0106 0 -1.20026e-05 -1.20026e-05 -6.46043e-07 0.120026 21.1961 39.286 
924 0.2914 0.2914 0 0.000200325 0.000200325 7.28939e-07 4.05443 1370.75 1736.62 
964 0.3152 0.3152 0 0.000182434 0.000182434 5.18272e-07 4.17206 1237.09 1628.34 
1004 0.34 0.34 0 0.000196964 0.000196964 3.71564e-06 4.59447 1410.66 1899.48 
1044 0.3386 0.3386 0 0.000185429 0.000185429 -7.42496e-06 4.62491 1410.53 1896.77 
1084 0.3664 0.3664 0 0.000198479 0.000198479 -1.59141e-05 4.95125 1455.79 1937.04 
1124 0.3692 0.3692 0 0.000209591 0.000209591 -2.63308e-06 5.00465 1556.23 2140.25 
1164 0.3576 0.3576 0 0.000189642 0.000189642 4.44809e-06 4.69407 1460.84 2060.33 
1204 0.5892 0.5892 0 0.000237644 0.000237644 -3.62218e-06 7.27595 1858.66 2880.56 
5 3.2142 3.2142 0 0.00492011 0.00492011 -1.34833e-05 49.2011 13579.2 18201.5 
45 3.1646 3.1646 0 0.00436058 0.00436058 3.0257e-05 43.6058 8458.4 11972.5 
85 3.2786 3.2786 0 0.00445817 0.00445817 -1.58013e-05 44.5817 7992.63 11280.3 
125 3.358 3.358 0 0.00451147 0.00451147 1.66417e-05 45.1147 8111.16 11414.8 
165 3.356 3.356 0 0.00452032 0.00452032 -1.83841e-05 45.2032 7827.69 11028.8 
205 3.314 3.314 0 0.00445766 0.00445766 -1.42738e-05 44.5766 8146.78 11362.2 
245 3.1812 3.1812 0 0.00436274 0.00436274 8.86776e-06 43.6274 8376.22 11660.7 
285 2.9856 2.9856 0 0.00425716 0.00425716 -2.08633e-05 42.5716 9533.7 13092.1 
325 0.334 0.334 0 0.000170638 0.000170638 -3.3375e-06 4.43059 1272.79 1826.88 
365 0.3736 0.3736 0 0.000213711 0.000213711 1.18906e-06 4.97606 1514.29 2090.27 
405 0.3626 0.3626 0 0.000194986 0.000194986 -1.93454e-06 4.86151 1440.59 1979.78 
445 0.3648 0.3648 0 0.000203907 0.000203907 2.4196e-06 4.98091 1408.43 1938.31 
485 0.3456 0.3456 0 0.000199503 0.000199503 5.76529e-06 4.66627 1351.98 1791.04 
525 0.3306 0.3306 0 0.000190403 0.000190403 -4.99597e-06 4.4183 1306.93 1702.85 
565 0.3088 0.3088 0 0.000185933 0.000185933 -1.88309e-06 4.12569 1295.82 1679.55 
605 0.0054 0.0054 0 -5.79727e-06 -5.79727e-06 2.75509e-07 0.115945 15.9821 27.809 
645 0.0108 0.0108 0 -1.19268e-05 -1.19268e-05 -9.68077e-07 0.119268 7.77478 15.8348 
685 0.0148 0.0148 0 -1.64663e-05 -1.64663e-05 1.87737e-06 0.164663 19.8165 39.1649 
725 0.015 0.015 0 -1.73112e-05 -1.73112e-05 1.14922e-06 0.173112 15.4762 39.7127 
765 0.0124 0.0124 0 -1.41933e-05 -1.41933e-05 9.84707e-07 0.141933 12.0419 31.3329 
805 0.0116 0.0116 0 -1.27949e-05 -1.27949e-05 9.14323e-07 0.127949 13.4067 27.9271 
845 0.0108 0.0108 0 -1.07198e-05 -1.07198e-05 -9.57684e-07 0.107198 14.2515 27.2737 
885 0.012 0.012 0 -1.18159e-05 -1.18159e-05 -5.04913e-09 0.118159 7.25184 20.4702 
925 0.2902 0.2902 0 0.000199775 0.000199775 -6.30338e-06 3.93626 1303.55 1683.69 
965 0.3132 0.3132 0 0.000180172 0.000180172 3.95782e-06 4.30245 1233.02 1631.55 
1005 0.3372 0.3372 0 0.000191034 0.000191034 -5.75621e-06 4.56039 1389.65 1857.08 
1045 0.3534 0.3534 0 0.000204788 0.000204788 -9.46362e-07 4.75933 1438.4 1942.81 
1085 0.3686 0.3686 0 0.000195904 0.000195904 9.1139e-06 4.97411 1417.64 1989.65 
1125 0.3664 0.3664 0 0.000209877 0.000209877 -1.87272e-06 4.9488 1508.52 2072.1 
1165 0.3654 0.3654 0 0.000206445 0.000206445 -3.46704e-06 4.86745 1542.12 2205.91 
6 3.1722 3.1722 0 0.00483745 0.00483745 1.09137e-05 48.3745 13300.8 17822.5 
46 3.1132 3.1132 0 0.0042842 0.0042842 -8.62858e-06 42.842 8466.43 11782.6 
86 3.2858 3.2858 0 0.00445378 0.00445378 -1.38799e-05 44.5378 8022.01 11405.2 
126 3.3456 3.3456 0 0.00452664 0.00452664 -3.70237e-06 45.2664 7919.36 11077.6 
166 3.3502 3.3502 0 0.00449113 0.00449113 1.23076e-05 44.9113 7764.72 10861.2 
206 3.3182 3.3182 0 0.00446525 0.00446525 7.21363e-06 44.6525 7898.3 11086 
246 3.174 3.174 0 0.00433244 0.00433244 -1.07411e-05 43.3244 8190.7 11628.6 
286 2.9432 2.9432 0 0.00414829 0.00414829 -2.3568e-05 41.4829 9238.44 12797.8 
326 0.3722 0.3722 0 0.000200999 0.000200999 -2.34549e-06 4.9822 1582.99 2262.19 
366 0.3884 0.3884 0 0.000218267 0.000218267 -8.72617e-06 5.21619 1624.07 2301.53 
406 0.3642 0.3642 0 0.000195894 0.000195894 -8.4808e-06 4.8818 1435.07 1953.14 
446 0.353 0.353 0 0.000197915 0.000197915 1.71492e-05 4.74331 1461.5 1928.04 
486 0.3398 0.3398 0 0.000183491 0.000183491 -6.57549e-06 4.54705 1363.59 1801.9 
526 0.3328 0.3328 0 0.000198655 0.000198655 6.08322e-07 4.51756 1365.29 1791.57 
566 0.2982 0.2982 0 0.000179649 0.000179649 8.75304e-07 3.97662 1284.38 1663.94 
606 0.0068 0.0068 0 -8.30968e-06 -8.30968e-06 -7.73424e-07 0.166194 23.0203 35.8754 
646 0.01 0.01 0 -1.00163e-05 -1.00163e-05 9.01923e-07 0.100163 11.8658 22.703 
686 0.0128 0.0128 0 -1.48376e-05 -1.48376e-05 3.24724e-07 0.148376 15.9011 27.2035 
726 0.015 0.015 0 -1.78223e-05 -1.78223e-05 6.23741e-08 0.178223 16.1381 26.1752 
766 0.013 0.013 0 -1.52147e-05 -1.52147e-05 -1.16807e-06 0.152147 21.2262 33.4912 
806 0.0162 0.0162 0 -1.80837e-05 -1.80837e-05 1.75806e-06 0.180837 17.828 40.5431 
846 0.0138 0.0138 0 -1.70955e-05 -1.70955e-05 4.56149e-07 0.170955 4.04875 18.2055 
886 0.0138 0.0138 0 -1.40391e-05 -1.40391e-05 6.00193e-07 0.140391 28.5336 45.8251 
926 0.2756 0.2756 0 0.000179546 0.000179546 -1.56165e-06 3.75109 1197.61 1595.53 
966 0.309 0.309 0 0.000179772 0.000179772 2.82841e-06 4.03932 1282.37 1701.94 
1006 0.3472 0.3472 0 0.000180275 0.000180275 -6.6625e-07 4.59782 1284.72 1749.21 
1046 0.3416 0.3416 0 0.000191374 0.000191374 4.60957e-06 4.5316 1362.04 1822.02 
1086 0.3744 0.3744 0 0.000213162 0.000213162 -1.06938e-05 5.00237 1545.77 2083.66 
1126 0.3854 0.3854 0 0.00021292 0.00021292 1.2612e-05 5.21669 1606.45 2198.36 
1166 0.3662 0.3662 0 0.000202622 0.000202622 4.52089e-07 4.83611 1512.55 2185.19 
7 3.1346 3.1346 0 0.00476648 0.00476648 3.11051e-05 47.6648 12510.8 16913.1 
47 3.1468 3.1468 0 0.00434628 0.00434628 -3.30956e-06 43.4628 8477.71 11733.8 
87 3.2742 3.2742 0 0.0044441 0.0044441 4.44026e-06 44.441 8073.37 11380.6 
127 3.307 3.307 0 0.00444594 0.00444594 4.53727e-06 44.4594 7841.6 11026 
167 3.3408 3.3408 0 0.00450005 0.00450005 3.74388e-06 45.0005 7755.7 10971.4 
207 3.3012 3.3012 0 0.00441783 0.00441783 -1.55927e-05 44.1783 7805.03 10870 
247 3.2112 3.2112 0 0.00436879 0.00436879 2.73159e-06 43.6879 8528.93 11981.9 
287 2.9846 2.9846 0 0.00425936 0.00425936 2.42226e-06 42.5936 9556.01 13190.9 
327 0.3598 0.3598 0 0.000200137 0.000200137 -3.84491e-06 4.80658 1405.92 2055.23 
367 0.3848 0.3848 0 0.000216737 0.000216737 5.61097e-06 5.21637 1626.19 2315.12 
407 0.3598 0.3598 0 0.000187765 0.000187765 -4.13881e-06 4.74976 1441.05 1970.03 
447 0.3772 0.3772 0 0.00021746 0.00021746 3.87257e-07 5.10694 1541.81 2064.97 
487 0.3296 0.3296 0 0.000191791 0.000191791 1.07551e-05 4.4218 1375.56 1832.49 
527 0.335 0.335 0 0.000186728 0.000186728 4.01873e-06 4.53901 1358.55 1788.38 
567 0.2934 0.2934 0 0.000189279 0.000189279 7.25944e-06 3.86435 1294.98 1691.15 
607 0.0126 0.0126 0 -1.21747e-05 -1.21747e-05 8.41381e-07 0.121747 9.64832 30.1597 
647 0.0106 0.0106 0 -1.14877e-05 -1.14877e-05 5.67745e-07 0.114877 10.8001 30.6999 
687 0.0144 0.0144 0 -1.80775e-05 -1.80775e-05 -2.49459e-07 0.180775 16.1573 35.1208 
727 0.0134 0.0134 0 -1.55142e-05 -1.55142e-05 3.80865e-07 0.155142 9.52636 28.9226 
767 0.0194 0.0194 0 -2.10881e-05 -2.10881e-05 1.72686e-07 0.210881 32.1394 63.9096 
807 0.016 0.016 0 -1.7909e-05 -1.7909e-05 -1.27418e-07 0.17909 17.0137 46.1615 
847 0.011 0.011 0 -1.28208e-05 -1.28208e-05 -6.85622e-07 0.128208 2.40429 15.193 
887 0.0112 0.0112 0 -1.14511e-05 -1.14511e-05 1.67484e-06 0.114511 18.2592 36.3306 
927 0.2954 0.2954 0 0.000183314 0.000183314 3.67962e-06 3.98217 1256.4 1662.98 
967 0.3184 0.3184 0 0.000187683 0.000187683 -4.77109e-06 4.17057 1299.42 1719.18 
1007 0.328 0.328 0 0.00018638 0.00018638 8.47897e-06 4.30991 1276.31 1689.01 
1047 0.3524 0.3524 0 0.000188227 0.000188227 2.43198e-06 4.72224 1395.32 1862.4 
1087 0.373 0.373 0 0.000210907 0.000210907 -1.67765e-06 4.96311 1478.52 2010.75 
1127 0.3762 0.3762 0 0.000202058 0.000202058 -7.90996e-06 5.00499 1559.55 2075.22 
1167 0.3788 0.3788 0 0.000213808 0.000213808 -4.16304e-06 5.1183 1644.3 2383.35 
8 3.091 3.091 0 0.00466638 0.00466638 4.9327e-06 46.6638 12423 16869.1 
48 3.1056 3.1056 0 0.00424948 0.00424948 -1.20191e-05 42.4948 8548.59 11873.5 
88 3.282 3.282 0 0.0044454 0.0044454 3.62638e-05 44.454 7981.25 11289.5 
128 3.3112 3.3112 0 0.00447963 0.00447963 1.86013e-05 44.7963 7884.42 11041.1 
168 3.28 3.28 0 0.00440301 0.00440301 1.14374e-05 44.0301 7717.71 10888.9 
208 3.2558 3.2558 0 0.00440379 0.00440379 -2.03868e-05 44.0379 8000.01 11177 
248 3.197 3.197 0 0.00439594 0.00439594 5.60202e-06 43.9594 8426.5 11975 
288 2.9616 2.9616 0 0.00420871 0.00420871 -1.83233e-05 42.0871 9667 13253.2 
328 0.3498 0.3498 0 0.000182551 0.000182551 1.18912e-05 4.72725 1407.69 2043.73 
368 0.3676 0.3676 0 0.000213974 0.000213974 7.84323e-06 4.94811 1603.59 2136.33 
408 0.3676 0.3676 0 0.000215291 0.000215291 4.06378e-06 5.03099 1528.76 2079.9 
448 0.3498 0.3498 0 0.000203926 0.000203926 4.7465e-06 4.77344 1500.16 1950.64 
488 0.3364 0.3364 0 0.000177662 0.000177662 -3.29711e-06 4.54153 1309.08 1744.8 
528 0.3266 0.3266 0 0.000185769 0.000185769 -1.61571e-06 4.40617 1274.25 1720.88 
568 0.2952 0.2952 0 0.000191299 0.000191299 -6.90007e-06 3.97968 1243.25 1646.99 
608 0.016 0.016 0 -1.63907e-05 -1.63907e-05 -2.39072e-06 0.163907 19.0105 44.7316 
648 0.0114 0.0114 0 -1.19929e-05 -1.19929e-05 -6.83864e-07 0.119929 12.7507 20.7316 
688 0.0134 0.0134 0 -1.33104e-05 -1.33104e-05 1.4908e-06 0.133104 16.9108 36.2813 
728 0.0138 0.0138 0 -1.47476e-05 -1.47476e-05 -1.53956e-06 0.147476 26.165 53.5893 
768 0.0154 0.0154 0 -1.71051e-05 -1.71051e-05 1.39354e-06 0.171051 15.7024 30.999 
808 0.0136 0.0136 0 -1.47335e-05 -1.47335e-05 5.31635e-07 0.147335 18.927 29.0498 
848 0.012 0.012 0 -1.32703e-05 -1.32703e-05 1.19851e-07 0.132703 11.1881 21.0709 
888 0.0114 0.0114 0 -1.22214e-05 -1.22214e-05 -2.76496e-07 0.122214 16.0581 34.0378 
928 0.2774 0.2774 0 0.000189752 0.000189752 -1.37206e-06 3.8021 1241.24 1640.85 
968 0.3222 0.3222 0 0.000189038 0.000189038 2.01814e-06 4.36902 1367.01 1791.84 
1008 0.3208 0.3208 0 0.000181929 0.000181929 1.012e-05 4.28834 1299.53 1686.31 
1048 0.3668 0.3668 0 0.000218002 0.000218002 7.54878e-06 4.92403 1540.73 2052.82 
1088 0.3718 0.3718 0 0.000212721 0.000212721 -3.852e-06 4.96693 1552.98 2078.37 
1128 0.362 0.362 0 0.000204121 0.000204121 -2.11414e-07 4.78946 1521.52 2079.18 
1168 0.396 0.396 0 0.000223945 0.000223945 -1.04172e-05 5.23351 1658.08 2320.29 
9 3.0178 3.0178 0 0.00453134 0.00453134 1.6398e-05 45.3134 11608.1 15784.6 
49 3.1132 3.1132 0 0.00430257 0.00430257 -1.26649e-05 43.0257 8511.8 11830 
89 3.242 3.242 0 0.00439947 0.00439947 1.05149e-05 43.9947 7833.85 11030.5 
129 3.3236 3.3236 0 0.0044735 0.0044735 -1.03434e-05 44.735 8012.08 11127 
169 3.3024 3.3024 0 0.00446162 0.00446162 -2.22279e-05 44.6162 7794.03 10971.1 
209 3.2452 3.2452 0 0.00437326 0.00437326 8.63257e-06 43.7326 7826.03 11143.6 
249 3.1532 3.1532 0 0.00431326 0.00431326 -4.17404e-06 43.1326 8235.45 11593 
289 2.911 2.911 0 0.00418135 0.00418135 6.7049e-06 41.8135 9590.55 13301.7 
329 0.3528 0.3528 0 0.000198036 0.000198036 -6.07981e-06 4.66767 1477.03 2155.47 
369 0.3804 0.3804 0 0.000203907 0.000203907 -1.39132e-06 5.0942 1497.96 2090.73 
409 0.3592 0.3592 0 0.000201393 0.000201393 3.83337e-06 4.92537 1485.77 2002.49 
449 0.3522 0.3522 0 0.000191268 0.000191268 2.87907e-06 4.72057 1341.72 1859.11 
489 0.3296 0.3296 0 0.000193016 0.000193016 6.28535e-08 4.43744 1332.67 1787.6 
529 0.3246 0.3246 0 0.000183493 0.000183493 -2.46244e-06 4.49118 1290.43 1667.23 
569 0.301 0.301 0 0.000193196 0.000193196 -9.13127e-06 4.00755 1285.96 1674.16 
609 0.011 0.011 0 -1.13944e-05 -1.13944e-05 1.21254e-06 0.113944 17.4277 27.578 
649 0.011 0.011 0 -1.20209e-05 -1.20209e-05 2.053e-06 0.120209 5.08467 19.4625 
689 0.0108 0.0108 0 -1.18597e-05 -1.18597e-05 4.48687e-07 0.118597 21.2457 36.2029 
729 0.0146 0.0146 0 -1.60455e-05 -1.60455e-05 2.13853e-06 0.160455 21.9124 46.2809 
769 0.0158 0.0158 0 -1.73051e-05 -1.73051e-05 -3.37982e-08 0.173051 16.5486 41.7854 
809 0.019 0.019 0 -2.16392e-05 -2.16392e-05 1.12366e-07 0.216392 19.1273 48.7984 
849 0.0142 0.0142 0 -1.73002e-05 -1.73002e-05 -5.93247e-07 0.173002 16.8675 35.3678 
889 0.011 0.011 0 -1.13442e-05 -1.13442e-05 -1.2096e-06 0.113442 13.5243 24.4992 
929 0.286 0.286 0 0.000180878 0.000180878 -6.16222e-07 3.84913 1224.65 1601.62 
969 0.3288 0.3288 0 0.000193654 0.000193654 2.38727e-07 4.40219 1283.4 1656.89 
1009 0.3342 0.3342 0 0.000190056 0.000190056 -8.38932e-06 4.50175 1354.77 1817.22 
1049 0.3662 0.3662 0 0.000191849 0.000191849 1.35368e-05 4.87197 1434.01 1923.04 
1089 0.357 0.357 0 0.000194285 0.000194285 -5.45102e-06 4.80133 1516.91 2035.35 
1129 0.3718 0.3718 0 0.000207808 0.000207808 -3.11813e-07 4.96899 1611.89 2224.38 
1169 0.3654 0.3654 0 0.000206712 0.000206712 9.46701e-06 4.78019 1455.74 2076.08 
10 2.9232 2.9232 0 0.00432882 0.00432882 -4.92371e-06 43.2882 10762.7 14675.8 
50 3.142 3.142 0 0.0043154 0.0043154 8.03929e-06 43.154 8512.59 11766.1 
90 3.2852 3.2852 0 0.00443558 0.00443558 4.39551e-06 44.3558 7973.82 11305.1 
130 3.2902 3.2902 0 0.00444216 0.00444216 -2.41534e-06 44.4216 7851.33 11035.5 
170 3.2854 3.2854 0 0.0044122 0.0044122 -1.06257e-05 44.122 7519.76 10708.8 
210 3.236 3.236 0 0.00436891 0.00436891 1.34606e-05 43.6891 7999.03 11227.2 
250 3.1182 3.1182 0 0.004255 0.004255 -1.76665e-05 42.55 8023.05 11280.1 
290 2.9312 2.9312 0 0.00424229 0.00424229 9.02173e-06 42.4229 9933.25 13659.1 
330 0.3736 0.3736 0 0.000198979 0.000198979 2.6559e-06 4.97123 1580.96 2217.58 
370 0.371 0.371 0 0.000209167 0.000209167 6.70703e-06 5.01709 1555.23 2135.29 
410 0.3632 0.3632 0 0.000203054 0.000203054 -7.7691e-06 4.83457 1521.81 2073.45 
450 0.3566 0.3566 0 0.000198629 0.000198629 2.07052e-06 4.78046 1486.83 2012.92 
490 0.3278 0.3278 0 0.000192557 0.000192557 -7.50023e-06 4.49231 1384.97 1799.58 
530 0.3278 0.3278 0 0.000190384 0.000190384 5.84004e-06 4.34325 1328.46 1758.35 
570 0.283 0.283 0 0.000171006 0.000171006 1.56056e-06 3.87164 1196.19 1564.13 
610 0.0116 0.0116 0 -1.15159e-05 -1.15159e-05 -8.74657e-07 0.115159 20.5893 33.9651 
650 0.016 0.016 0 -1.75784e-05 -1.75784e-05 1.23293e-06 0.175784 22.0732 44.8716 
690 0.0114 0.0114 0 -1.31908e-05 -1.31908e-05 -8.52489e-07 0.131908 19.3756 34.5469 
730 0.0106 0.0106 0 -1.26199e-05 -1.26199e-05 2.35574e-06 0.126199 19.0155 26.2946 
770 0.0136 0.0136 0 -1.49459e-05 -1.49459e-05 -1.72919e-06 0.149459 14.0797 30.5917 
810 0.013 0.013 0 -1.44312e-05 -1.44312e-05 9.26272e-07 0.144312 22.3003 31.9393 
850 0.0126 0.0126 0 -1.33495e-05 -1.33495e-05 3.66131e-07 0.133495 17.1967 35.9654 
890 0.0116 0.0116 0 -1.18484e-05 -1.18484e-05 -6.00564e-07 0.118484 14.1695 32.1053 
930 0.2896 0.2896 0 0.000177544 0.000177544 -2.09411e-06 3.8195 1223.03 1608.33 
970 0.3124 0.3124 0 0.00018492 0.00018492 -1.1544e-05 4.16275 1226.9 1698.28 
1010 0.338 0.338 0 0.000192801 0.000192801 7.98991e-06 4.4528 1380.44 1872.97 
1050 0.3578 0.3578 0 0.000200871 0.000200871 7.67759e-06 4.81812 1488.09 1989.36 
1090 0.3784 0.3784 0 0.000216015 0.000216015 2.71503e-06 5.11256 1600.63 2139.38 
1130 0.3744 0.3744 0 0.000203157 0.000203157 -6.13771e-07 4.99348 1471.26 2069.95 
1170 0.3672 0.3672 0 0.000202171 0.000202171 -2.34397e-06 4.9082 1556.95 2238.72 
11 2.8484 2.8484 0 0.00412888 0.00412888 -9.58054e-06 41.2888 9785.93 13554.2 
51 3.0994 3.0994 0 0.00426595 0.00426595 -1.73147e-05 42.6595 8237.5 11546.5 
91 3.211 3.211 0 0.00432888 0.00432888 4.68712e-06 43.2888 7787.23 10892.6 
131 3.2684 3.2684 0 0.00439378 0.00439378 -1.60808e-05 43.9378 7776.31 10814.7 
171 3.3392 3.3392 0 0.00450394 0.00450394 -1.24086e-05 45.0394 7984.79 11216.7 
211 3.2202 3.2202 0 0.00437464 0.00437464 3.2145e-06 43.7464 7815.42 11025.2 
251 3.0512 3.0512 0 0.00420411 0.00420411 2.018e-05 42.0411 8097.89 11352.8 
291 2.9518 2.9518 0 0.00437122 0.00437122 1.26774e-05 43.7122 10944.4 14831 
331 0.366 0.366 0 0.000192009 0.000192009 7.81145e-06 4.75734 1501.27 2085.44 
371 0.3722 0.3722 0 0.000217514 0.000217514 5.90544e-06 4.93953 1561.26 2147.91 
411 0.3714 0.3714 0 0.000188375 0.000188375 6.51751e-06 4.94221 1451.51 1943.96 
451 0.3408 0.3408 0 0.00019484 0.00019484 5.76435e-06 4.55055 1394.57 1847.56 
491 0.349 0.349 0 0.00019582 0.00019582 3.84449e-06 4.74243 1373.7 1872.37 
531 0.3254 0.3254 0 0.000194021 0.000194021 -9.31185e-07 4.33308 1301.07 1736.89 
571 0.2874 0.2874 0 0.000184642 0.000184642 -2.93309e-06 3.9031 1243.55 1602.96 
611 0.0106 0.0106 0 -1.04871e-05 -1.04871e-05 -1.24568e-06 0.104871 11.7215 26.4689 
651 0.0116 0.0116 0 -1.37444e-05 -1.37444e-05 -1.37496e-06 0.137444 14.1424 31.4327 
691 0.0138 0.0138 0 -1.50543e-05 -1.50543e-05 -4.66681e-08 0.150543 10.8954 32.8586 
731 0.0138 0.0138 0 -1.42086e-05 -1.42086e-05 -1.00591e-06 0.142086 8.93194 26.931 
771 0.0134 0.0134 0 -1.39562e-05 -1.39562e-05 1.32993e-06 0.139562 20.3685 38.6509 
811 0.0144 0.0144 0 -1.61492e-05 -1.61492e-05 -1.50347e-06 0.161492 21.3705 40.8007 
851 0.0118 0.0118 0 -1.27018e-05 -1.27018e-05 8.12695e-07 0.127018 16.1164 30.5565 
891 0.0112 0.0112 0 -1.13295e-05 -1.13295e-05 1.20943e-06 0.113295 10.1347 20.5682 
931 0.285 0.285 0 0.000187897 0.000187897 1.99969e-06 3.86442 1248.79 1593.72 
971 0.3266 0.3266 0 0.000193695 0.000193695 3.93605e-06 4.48034 1313.01 1743.24 
1011 0.3538 0.3538 0 0.000216464 0.000216464 -1.55936e-06 4.79051 1460.46 1955.73 
1051 0.3458 0.3458 0 0.000195319 0.000195319 -8.4249e-06 4.69455 1433.88 1932.72 
1091 0.3798 0.3798 0 0.00020453 0.00020453 -1.98698e-06 5.04917 1468.37 1978.14 
1131 0.3702 0.3702 0 0.000210115 0.000210115 1.5939e-06 4.99557 1554.34 2142.57 
1171 0.389 0.389 0 0.000226082 0.000226082 5.82259e-06 5.1307 1607.5 2313.57 
12 2.864 2.864 0 0.0041322 0.0041322 -2.28558e-05 41.322 9521.38 13081.1 
52 3.1292 3.1292 0 0.0042592 0.0042592 -5.05929e-07 42.592 8181.31 11473 
92 3.283 3.283 0 0.00446403 0.00446403 -3.85229e-05 44.6403 8036.29 11296.6 
132 3.313 3.313 0 0.00447852 0.00447852 -2.95572e-05 44.7852 7928.36 11191.6 
172 3.3094 3.3094 0 0.00445484 0.00445484 2.32683e-05 44.5484 7765.51 10916.5 
212 3.2318 3.2318 0 0.00435021 0.00435021 -1.48216e-05 43.5021 7817.46 10917.9 
252 3.1102 3.1102 0 0.00426996 0.00426996 -1.76726e-06 42.6996 8586.99 11807.3 
292 3.0216 3.0216 0 0.00451397 0.00451397 1.33292e-05 45.1397 11495.6 15648.4 
332 0.374 0.374 0 0.000200713 0.000200713 -4.09427e-06 4.99022 1553.74 2201.42 
372 0.3716 0.3716 0 0.000225625 0.000225625 2.85921e-06 5.04356 1632.74 2267.92 
412 0.3548 0.3548 0 0.000197681 0.000197681 -2.7207e-06 4.7734 1458.82 1931.84 
452 0.3642 0.3642 0 0.000209988 0.000209988 -9.61652e-07 4.87705 1582.04 2077.26 
492 0.3512 0.3512 0 0.000198028 0.000198028 1.27454e-06 4.64134 1377.48 1846.3 
532 0.3332 0.3332 0 0.000195552 0.000195552 3.79187e-06 4.42902 1383.78 1789.84 
572 0.2862 0.2862 0 0.000178574 0.000178574 4.80947e-06 3.88243 1204.87 1559.53 
612 0.01 0.01 0 -1.05395e-05 -1.05395e-05 1.01025e-07 0.105395 16.7991 36.5618 
652 0.0118 0.0118 0 -1.29577e-05 -1.29577e-05 6.6366e-08 0.129577 18.3604 27.8551 
692 0.0132 0.0132 0 -1.49871e-05 -1.49871e-05 6.36681e-07 0.149871 19.1059 30.1411 
732 0.0122 0.0122 0 -1.3728e-05 -1.3728e-05 -3.54143e-07 0.13728 13.5085 38.7706 
772 0.0168 0.0168 0 -1.69737e-05 -1.69737e-05 -6.54062e-07 0.169737 24.9216 50.1812 
812 0.01 0.01 0 -1.07187e-05 -1.07187e-05 8.82035e-07 0.107187 12.5522 25.4144 
852 0.0118 0.0118 0 -1.29041e-05 -1.29041e-05 4.19949e-07 0.129041 16.2683 43.082 
892 0.0118 0.0118 0 -1.23763e-05 -1.23763e-05 -9.11311e-08 0.123763 13.7159 29.1834 
932 0.2908 0.2908 0 0.000180476 0.000180476 3.56827e-06 3.97831 1226.11 1543.87 
972 0.3146 0.3146 0 0.000177511 0.000177511 6.77434e-06 4.20938 1240.45 1641.39 
1012 0.342 0.342 0 0.000193769 0.000193769 -7.78093e-06 4.51566 1350.29 1795.22 
1052 0.3588 0.3588 0 0.000191371 0.000191371 -3.25077e-06 4.80185 1460.8 1922.78 
1092 0.3682 0.3682 0 0.000211736 0.000211736 -5.86969e-07 4.91267 1531.05 2100.75 
1132 0.3646 0.3646 0 0.000201055 0.000201055 -1.49375e-06 4.91823 1442.36 2030.72 
1172 0.372 0.372 0 0.00020139 0.00020139 1.29082e-06 4.95258 1512.13 2153.71 
13 2.8724 2.8724 0 0.00410103 0.00410103 -3.92127e-05 41.0103 9361.02 12849.9 
53 3.1272 3.1272 0 0.00431345 0.00431345 -2.02424e-05 43.1345 8177.17 11454.4 
93 3.2748 3.2748 0 0.00440774 0.00440774 1.12625e-06 44.0774 7844.13 11056.6 
133 3.3228 3.3228 0 0.00447599 0.00447599 4.72453e-06 44.7599 7808.77 10985.5 
173 3.305 3.305 0 0.00444076 0.00444076 1.89498e-05 44.4076 7699.23 10787.1 